216
Lattice="16.354932397188033 0.0 0.0 0.0 16.354932397188033 0.0 0.0 0.0 16.354932397188033" Properties=species:S:1:pos:R:3:forces:R:3 strain_type=Hydrostatic strain_value=-0.005 energy=-35246.36330528516 pbc="T T T"
Si       0.00000000       0.00000000       0.00000000       0.00000000       0.00000000       0.00000000
Si       1.36291103       1.36291103       1.36291103      -0.00000000      -0.00000000      -0.00000000
Si       0.00000000       2.72582207       2.72582207       0.00000000      -0.00000000      -0.00000000
Si       1.36291103       4.08873310       4.08873310      -0.00000000       0.00000000      -0.00000000
Si       2.72582207       0.00000000       2.72582207      -0.00000000       0.00000000      -0.00000000
Si       4.08873310       1.36291103       4.08873310       0.00000000      -0.00000000       0.00000000
Si       2.72582207       2.72582207       0.00000000      -0.00000000      -0.00000000       0.00000000
Si       4.08873310       4.08873310       1.36291103       0.00000000       0.00000000       0.00000000
Si       0.00000000       0.00000000       5.45164413       0.00000000       0.00000000       0.00000000
Si       1.36291103       1.36291103       6.81455517      -0.00000000      -0.00000000      -0.00000000
Si       0.00000000       2.72582207       8.17746620       0.00000000      -0.00000000       0.00000000
Si       1.36291103       4.08873310       9.54037723       0.00000000       0.00000000       0.00000000
Si       2.72582207       0.00000000       8.17746620      -0.00000000       0.00000000      -0.00000000
Si       4.08873310       1.36291103       9.54037723       0.00000000       0.00000000       0.00000000
Si       2.72582207       2.72582207       5.45164413      -0.00000000      -0.00000000       0.00000000
Si       4.08873310       4.08873310       6.81455517       0.00000000       0.00000000      -0.00000000
Si       0.00000000       0.00000000      10.90328826       0.00000000       0.00000000       0.00000000
Si       1.36291103       1.36291103      12.26619930      -0.00000000      -0.00000000      -0.00000000
Si       0.00000000       2.72582207      13.62911033       0.00000000      -0.00000000      -0.00000000
Si       1.36291103       4.08873310      14.99202136      -0.00000000      -0.00000000      -0.00000000
Si       2.72582207       0.00000000      13.62911033      -0.00000000       0.00000000      -0.00000000
Si       4.08873310       1.36291103      14.99202136      -0.00000000      -0.00000000      -0.00000000
Si       2.72582207       2.72582207      10.90328826      -0.00000000      -0.00000000       0.00000000
Si       4.08873310       4.08873310      12.26619930       0.00000000       0.00000000      -0.00000000
Si       0.00000000       5.45164413       0.00000000       0.00000000       0.00000000      -0.00000000
Si       1.36291103       6.81455517       1.36291103       0.00000000      -0.00000000       0.00000000
Si       0.00000000       8.17746620       2.72582207      -0.00000000       0.00000000      -0.00000000
Si       1.36291103       9.54037723       4.08873310      -0.00000000       0.00000000       0.00000000
Si       2.72582207       5.45164413       2.72582207       0.00000000       0.00000000      -0.00000000
Si       4.08873310       6.81455517       4.08873310       0.00000000      -0.00000000      -0.00000000
Si       2.72582207       8.17746620       0.00000000      -0.00000000       0.00000000      -0.00000000
Si       4.08873310       9.54037723       1.36291103       0.00000000       0.00000000      -0.00000000
Si       0.00000000       5.45164413       5.45164413       0.00000000      -0.00000000      -0.00000000
Si       1.36291103       6.81455517       6.81455517      -0.00000000      -0.00000000      -0.00000000
Si       0.00000000       8.17746620       8.17746620      -0.00000000       0.00000000       0.00000000
Si       1.36291103       9.54037723       9.54037723      -0.00000000       0.00000000       0.00000000
Si       2.72582207       5.45164413       8.17746620      -0.00000000      -0.00000000       0.00000000
Si       4.08873310       6.81455517       9.54037723       0.00000000      -0.00000000       0.00000000
Si       2.72582207       8.17746620       5.45164413       0.00000000       0.00000000       0.00000000
Si       4.08873310       9.54037723       6.81455517       0.00000000       0.00000000      -0.00000000
Si       0.00000000       5.45164413      10.90328826      -0.00000000       0.00000000       0.00000000
Si       1.36291103       6.81455517      12.26619930      -0.00000000      -0.00000000      -0.00000000
Si       0.00000000       8.17746620      13.62911033       0.00000000       0.00000000      -0.00000000
Si       1.36291103       9.54037723      14.99202136      -0.00000000       0.00000000       0.00000000
Si       2.72582207       5.45164413      13.62911033      -0.00000000       0.00000000      -0.00000000
Si       4.08873310       6.81455517      14.99202136       0.00000000       0.00000000      -0.00000000
Si       2.72582207       8.17746620      10.90328826      -0.00000000       0.00000000       0.00000000
Si       4.08873310       9.54037723      12.26619930       0.00000000       0.00000000      -0.00000000
Si       0.00000000      10.90328826       0.00000000       0.00000000       0.00000000      -0.00000000
Si       1.36291103      12.26619930       1.36291103       0.00000000      -0.00000000      -0.00000000
Si       0.00000000      13.62911033       2.72582207       0.00000000      -0.00000000      -0.00000000
Si       1.36291103      14.99202136       4.08873310       0.00000000      -0.00000000       0.00000000
Si       2.72582207      10.90328826       2.72582207      -0.00000000       0.00000000       0.00000000
Si       4.08873310      12.26619930       4.08873310       0.00000000      -0.00000000      -0.00000000
Si       2.72582207      13.62911033       0.00000000      -0.00000000      -0.00000000      -0.00000000
Si       4.08873310      14.99202136       1.36291103       0.00000000      -0.00000000       0.00000000
Si       0.00000000      10.90328826       5.45164413      -0.00000000       0.00000000       0.00000000
Si       1.36291103      12.26619930       6.81455517      -0.00000000      -0.00000000      -0.00000000
Si       0.00000000      13.62911033       8.17746620       0.00000000      -0.00000000       0.00000000
Si       1.36291103      14.99202136       9.54037723      -0.00000000      -0.00000000       0.00000000
Si       2.72582207      10.90328826       8.17746620       0.00000000       0.00000000       0.00000000
Si       4.08873310      12.26619930       9.54037723       0.00000000      -0.00000000       0.00000000
Si       2.72582207      13.62911033       5.45164413       0.00000000      -0.00000000       0.00000000
Si       4.08873310      14.99202136       6.81455517       0.00000000       0.00000000      -0.00000000
Si       0.00000000      10.90328826      10.90328826       0.00000000       0.00000000       0.00000000
Si       1.36291103      12.26619930      12.26619930      -0.00000000      -0.00000000      -0.00000000
Si       0.00000000      13.62911033      13.62911033       0.00000000      -0.00000000      -0.00000000
Si       1.36291103      14.99202136      14.99202136      -0.00000000       0.00000000       0.00000000
Si       2.72582207      10.90328826      13.62911033      -0.00000000       0.00000000      -0.00000000
Si       4.08873310      12.26619930      14.99202136       0.00000000      -0.00000000       0.00000000
Si       2.72582207      13.62911033      10.90328826      -0.00000000      -0.00000000       0.00000000
Si       4.08873310      14.99202136      12.26619930       0.00000000       0.00000000      -0.00000000
Si       5.45164413       0.00000000       0.00000000       0.00000000       0.00000000      -0.00000000
Si       6.81455517       1.36291103       1.36291103      -0.00000000       0.00000000       0.00000000
Si       5.45164413       2.72582207       2.72582207       0.00000000       0.00000000       0.00000000
Si       6.81455517       4.08873310       4.08873310      -0.00000000       0.00000000      -0.00000000
Si       8.17746620       0.00000000       2.72582207       0.00000000      -0.00000000      -0.00000000
Si       9.54037723       1.36291103       4.08873310       0.00000000       0.00000000       0.00000000
Si       8.17746620       2.72582207       0.00000000      -0.00000000      -0.00000000       0.00000000
Si       9.54037723       4.08873310       1.36291103       0.00000000       0.00000000      -0.00000000
Si       5.45164413       0.00000000       5.45164413      -0.00000000       0.00000000      -0.00000000
Si       6.81455517       1.36291103       6.81455517      -0.00000000       0.00000000      -0.00000000
Si       5.45164413       2.72582207       8.17746620      -0.00000000      -0.00000000       0.00000000
Si       6.81455517       4.08873310       9.54037723      -0.00000000       0.00000000       0.00000000
Si       8.17746620       0.00000000       8.17746620       0.00000000      -0.00000000       0.00000000
Si       9.54037723       1.36291103       9.54037723       0.00000000      -0.00000000       0.00000000
Si       8.17746620       2.72582207       5.45164413       0.00000000       0.00000000      -0.00000000
Si       9.54037723       4.08873310       6.81455517       0.00000000       0.00000000      -0.00000000
Si       5.45164413       0.00000000      10.90328826       0.00000000      -0.00000000       0.00000000
Si       6.81455517       1.36291103      12.26619930      -0.00000000      -0.00000000      -0.00000000
Si       5.45164413       2.72582207      13.62911033       0.00000000      -0.00000000      -0.00000000
Si       6.81455517       4.08873310      14.99202136      -0.00000000       0.00000000       0.00000000
Si       8.17746620       0.00000000      13.62911033       0.00000000       0.00000000      -0.00000000
Si       9.54037723       1.36291103      14.99202136       0.00000000      -0.00000000       0.00000000
Si       8.17746620       2.72582207      10.90328826       0.00000000      -0.00000000       0.00000000
Si       9.54037723       4.08873310      12.26619930       0.00000000       0.00000000      -0.00000000
Si       5.45164413       5.45164413       0.00000000       0.00000000      -0.00000000       0.00000000
Si       6.81455517       6.81455517       1.36291103      -0.00000000      -0.00000000      -0.00000000
Si       5.45164413       8.17746620       2.72582207       0.00000000       0.00000000       0.00000000
Si       6.81455517       9.54037723       4.08873310      -0.00000000       0.00000000      -0.00000000
Si       8.17746620       5.45164413       2.72582207      -0.00000000       0.00000000       0.00000000
Si       9.54037723       6.81455517       4.08873310       0.00000000      -0.00000000       0.00000000
Si       8.17746620       8.17746620       0.00000000       0.00000000       0.00000000       0.00000000
Si       9.54037723       9.54037723       1.36291103       0.00000000       0.00000000      -0.00000000
Si       5.45164413       5.45164413       5.45164413       0.00000000       0.00000000      -0.00000000
Si       6.81455517       6.81455517       6.81455517      -0.00000000      -0.00000000      -0.00000000
Si       5.45164413       8.17746620       8.17746620       0.00000000       0.00000000       0.00000000
Si       6.81455517       9.54037723       9.54037723      -0.00000000       0.00000000       0.00000000
Si       8.17746620       5.45164413       8.17746620       0.00000000       0.00000000       0.00000000
Si       9.54037723       6.81455517       9.54037723       0.00000000      -0.00000000       0.00000000
Si       8.17746620       8.17746620       5.45164413       0.00000000      -0.00000000      -0.00000000
Si       9.54037723       9.54037723       6.81455517       0.00000000       0.00000000      -0.00000000
Si       5.45164413       5.45164413      10.90328826       0.00000000       0.00000000      -0.00000000
Si       6.81455517       6.81455517      12.26619930      -0.00000000      -0.00000000      -0.00000000
Si       5.45164413       8.17746620      13.62911033       0.00000000       0.00000000      -0.00000000
Si       6.81455517       9.54037723      14.99202136      -0.00000000      -0.00000000      -0.00000000
Si       8.17746620       5.45164413      13.62911033       0.00000000      -0.00000000      -0.00000000
Si       9.54037723       6.81455517      14.99202136       0.00000000      -0.00000000      -0.00000000
Si       8.17746620       8.17746620      10.90328826       0.00000000       0.00000000       0.00000000
Si       9.54037723       9.54037723      12.26619930       0.00000000       0.00000000      -0.00000000
Si       5.45164413      10.90328826       0.00000000       0.00000000       0.00000000       0.00000000
Si       6.81455517      12.26619930       1.36291103      -0.00000000      -0.00000000      -0.00000000
Si       5.45164413      13.62911033       2.72582207       0.00000000      -0.00000000       0.00000000
Si       6.81455517      14.99202136       4.08873310      -0.00000000       0.00000000       0.00000000
Si       8.17746620      10.90328826       2.72582207       0.00000000       0.00000000      -0.00000000
Si       9.54037723      12.26619930       4.08873310       0.00000000      -0.00000000       0.00000000
Si       8.17746620      13.62911033       0.00000000       0.00000000       0.00000000       0.00000000
Si       9.54037723      14.99202136       1.36291103       0.00000000       0.00000000      -0.00000000
Si       5.45164413      10.90328826       5.45164413      -0.00000000       0.00000000       0.00000000
Si       6.81455517      12.26619930       6.81455517      -0.00000000      -0.00000000      -0.00000000
Si       5.45164413      13.62911033       8.17746620      -0.00000000      -0.00000000       0.00000000
Si       6.81455517      14.99202136       9.54037723      -0.00000000       0.00000000       0.00000000
Si       8.17746620      10.90328826       8.17746620       0.00000000       0.00000000       0.00000000
Si       9.54037723      12.26619930       9.54037723       0.00000000      -0.00000000       0.00000000
Si       8.17746620      13.62911033       5.45164413       0.00000000      -0.00000000       0.00000000
Si       9.54037723      14.99202136       6.81455517       0.00000000      -0.00000000      -0.00000000
Si       5.45164413      10.90328826      10.90328826      -0.00000000       0.00000000       0.00000000
Si       6.81455517      12.26619930      12.26619930      -0.00000000      -0.00000000       0.00000000
Si       5.45164413      13.62911033      13.62911033       0.00000000      -0.00000000      -0.00000000
Si       6.81455517      14.99202136      14.99202136      -0.00000000      -0.00000000      -0.00000000
Si       8.17746620      10.90328826      13.62911033      -0.00000000       0.00000000      -0.00000000
Si       9.54037723      12.26619930      14.99202136       0.00000000      -0.00000000       0.00000000
Si       8.17746620      13.62911033      10.90328826      -0.00000000      -0.00000000       0.00000000
Si       9.54037723      14.99202136      12.26619930       0.00000000       0.00000000      -0.00000000
Si      10.90328826       0.00000000       0.00000000       0.00000000      -0.00000000       0.00000000
Si      12.26619930       1.36291103       1.36291103      -0.00000000      -0.00000000      -0.00000000
Si      10.90328826       2.72582207       2.72582207       0.00000000      -0.00000000       0.00000000
Si      12.26619930       4.08873310       4.08873310      -0.00000000       0.00000000       0.00000000
Si      13.62911033       0.00000000       2.72582207      -0.00000000      -0.00000000      -0.00000000
Si      14.99202136       1.36291103       4.08873310      -0.00000000      -0.00000000      -0.00000000
Si      13.62911033       2.72582207       0.00000000      -0.00000000      -0.00000000       0.00000000
Si      14.99202136       4.08873310       1.36291103      -0.00000000       0.00000000       0.00000000
Si      10.90328826       0.00000000       5.45164413       0.00000000      -0.00000000       0.00000000
Si      12.26619930       1.36291103       6.81455517      -0.00000000      -0.00000000      -0.00000000
Si      10.90328826       2.72582207       8.17746620       0.00000000      -0.00000000       0.00000000
Si      12.26619930       4.08873310       9.54037723      -0.00000000       0.00000000       0.00000000
Si      13.62911033       0.00000000       8.17746620      -0.00000000       0.00000000       0.00000000
Si      14.99202136       1.36291103       9.54037723      -0.00000000      -0.00000000       0.00000000
Si      13.62911033       2.72582207       5.45164413      -0.00000000      -0.00000000       0.00000000
Si      14.99202136       4.08873310       6.81455517      -0.00000000       0.00000000       0.00000000
Si      10.90328826       0.00000000      10.90328826       0.00000000       0.00000000       0.00000000
Si      12.26619930       1.36291103      12.26619930      -0.00000000      -0.00000000      -0.00000000
Si      10.90328826       2.72582207      13.62911033       0.00000000      -0.00000000      -0.00000000
Si      12.26619930       4.08873310      14.99202136      -0.00000000       0.00000000       0.00000000
Si      13.62911033       0.00000000      13.62911033      -0.00000000       0.00000000      -0.00000000
Si      14.99202136       1.36291103      14.99202136       0.00000000      -0.00000000       0.00000000
Si      13.62911033       2.72582207      10.90328826      -0.00000000      -0.00000000       0.00000000
Si      14.99202136       4.08873310      12.26619930      -0.00000000       0.00000000      -0.00000000
Si      10.90328826       5.45164413       0.00000000       0.00000000       0.00000000       0.00000000
Si      12.26619930       6.81455517       1.36291103      -0.00000000      -0.00000000      -0.00000000
Si      10.90328826       8.17746620       2.72582207       0.00000000      -0.00000000      -0.00000000
Si      12.26619930       9.54037723       4.08873310      -0.00000000       0.00000000       0.00000000
Si      13.62911033       5.45164413       2.72582207      -0.00000000       0.00000000      -0.00000000
Si      14.99202136       6.81455517       4.08873310      -0.00000000      -0.00000000       0.00000000
Si      13.62911033       8.17746620       0.00000000       0.00000000       0.00000000       0.00000000
Si      14.99202136       9.54037723       1.36291103      -0.00000000       0.00000000      -0.00000000
Si      10.90328826       5.45164413       5.45164413      -0.00000000       0.00000000      -0.00000000
Si      12.26619930       6.81455517       6.81455517      -0.00000000      -0.00000000      -0.00000000
Si      10.90328826       8.17746620       8.17746620       0.00000000       0.00000000       0.00000000
Si      12.26619930       9.54037723       9.54037723      -0.00000000       0.00000000       0.00000000
Si      13.62911033       5.45164413       8.17746620      -0.00000000       0.00000000       0.00000000
Si      14.99202136       6.81455517       9.54037723       0.00000000      -0.00000000       0.00000000
Si      13.62911033       8.17746620       5.45164413      -0.00000000       0.00000000       0.00000000
Si      14.99202136       9.54037723       6.81455517      -0.00000000       0.00000000      -0.00000000
Si      10.90328826       5.45164413      10.90328826       0.00000000       0.00000000       0.00000000
Si      12.26619930       6.81455517      12.26619930      -0.00000000      -0.00000000      -0.00000000
Si      10.90328826       8.17746620      13.62911033       0.00000000       0.00000000      -0.00000000
Si      12.26619930       9.54037723      14.99202136      -0.00000000       0.00000000       0.00000000
Si      13.62911033       5.45164413      13.62911033      -0.00000000       0.00000000      -0.00000000
Si      14.99202136       6.81455517      14.99202136      -0.00000000      -0.00000000      -0.00000000
Si      13.62911033       8.17746620      10.90328826      -0.00000000       0.00000000       0.00000000
Si      14.99202136       9.54037723      12.26619930       0.00000000       0.00000000      -0.00000000
Si      10.90328826      10.90328826       0.00000000       0.00000000       0.00000000       0.00000000
Si      12.26619930      12.26619930       1.36291103      -0.00000000      -0.00000000      -0.00000000
Si      10.90328826      13.62911033       2.72582207       0.00000000      -0.00000000      -0.00000000
Si      12.26619930      14.99202136       4.08873310      -0.00000000       0.00000000      -0.00000000
Si      13.62911033      10.90328826       2.72582207      -0.00000000       0.00000000      -0.00000000
Si      14.99202136      12.26619930       4.08873310      -0.00000000      -0.00000000       0.00000000
Si      13.62911033      13.62911033       0.00000000      -0.00000000      -0.00000000       0.00000000
Si      14.99202136      14.99202136       1.36291103       0.00000000       0.00000000      -0.00000000
Si      10.90328826      10.90328826       5.45164413       0.00000000       0.00000000       0.00000000
Si      12.26619930      12.26619930       6.81455517      -0.00000000      -0.00000000      -0.00000000
Si      10.90328826      13.62911033       8.17746620       0.00000000      -0.00000000       0.00000000
Si      12.26619930      14.99202136       9.54037723      -0.00000000       0.00000000       0.00000000
Si      13.62911033      10.90328826       8.17746620      -0.00000000       0.00000000       0.00000000
Si      14.99202136      12.26619930       9.54037723       0.00000000      -0.00000000       0.00000000
Si      13.62911033      13.62911033       5.45164413      -0.00000000      -0.00000000      -0.00000000
Si      14.99202136      14.99202136       6.81455517      -0.00000000       0.00000000       0.00000000
Si      10.90328826      10.90328826      10.90328826       0.00000000       0.00000000      -0.00000000
Si      12.26619930      12.26619930      12.26619930      -0.00000000      -0.00000000      -0.00000000
Si      10.90328826      13.62911033      13.62911033       0.00000000      -0.00000000      -0.00000000
Si      12.26619930      14.99202136      14.99202136      -0.00000000      -0.00000000       0.00000000
Si      13.62911033      10.90328826      13.62911033       0.00000000       0.00000000      -0.00000000
Si      14.99202136      12.26619930      14.99202136       0.00000000      -0.00000000      -0.00000000
Si      13.62911033      13.62911033      10.90328826      -0.00000000      -0.00000000       0.00000000
Si      14.99202136      14.99202136      12.26619930       0.00000000      -0.00000000      -0.00000000
216
Lattice="16.358345363047214 0.0 0.0 0.0 16.358345363047214 0.0 0.0 0.0 16.358345363047214" Properties=species:S:1:pos:R:3:forces:R:3 strain_type=Hydrostatic strain_value=-0.004375 energy=-35246.37043958376 pbc="T T T"
Si       0.00000000       0.00000000       0.00000000       0.00000000       0.00000000       0.00000000
Si       1.36319545       1.36319545       1.36319545      -0.00000000       0.00000000      -0.00000000
Si       0.00000000       2.72639089       2.72639089      -0.00000000      -0.00000000      -0.00000000
Si       1.36319545       4.08958634       4.08958634      -0.00000000       0.00000000      -0.00000000
Si       2.72639089       0.00000000       2.72639089      -0.00000000       0.00000000      -0.00000000
Si       4.08958634       1.36319545       4.08958634       0.00000000       0.00000000      -0.00000000
Si       2.72639089       2.72639089       0.00000000      -0.00000000      -0.00000000       0.00000000
Si       4.08958634       4.08958634       1.36319545      -0.00000000      -0.00000000       0.00000000
Si       0.00000000       0.00000000       5.45278179      -0.00000000       0.00000000       0.00000000
Si       1.36319545       1.36319545       6.81597723      -0.00000000       0.00000000       0.00000000
Si       0.00000000       2.72639089       8.17917268       0.00000000       0.00000000      -0.00000000
Si       1.36319545       4.08958634       9.54236813      -0.00000000      -0.00000000       0.00000000
Si       2.72639089       0.00000000       8.17917268       0.00000000       0.00000000      -0.00000000
Si       4.08958634       1.36319545       9.54236813      -0.00000000       0.00000000       0.00000000
Si       2.72639089       2.72639089       5.45278179      -0.00000000      -0.00000000       0.00000000
Si       4.08958634       4.08958634       6.81597723       0.00000000      -0.00000000      -0.00000000
Si       0.00000000       0.00000000      10.90556358      -0.00000000       0.00000000       0.00000000
Si       1.36319545       1.36319545      12.26875902      -0.00000000       0.00000000      -0.00000000
Si       0.00000000       2.72639089      13.63195447      -0.00000000       0.00000000      -0.00000000
Si       1.36319545       4.08958634      14.99514992      -0.00000000      -0.00000000      -0.00000000
Si       2.72639089       0.00000000      13.63195447      -0.00000000       0.00000000       0.00000000
Si       4.08958634       1.36319545      14.99514992      -0.00000000       0.00000000      -0.00000000
Si       2.72639089       2.72639089      10.90556358      -0.00000000       0.00000000       0.00000000
Si       4.08958634       4.08958634      12.26875902      -0.00000000      -0.00000000       0.00000000
Si       0.00000000       5.45278179       0.00000000       0.00000000       0.00000000       0.00000000
Si       1.36319545       6.81597723       1.36319545      -0.00000000      -0.00000000      -0.00000000
Si       0.00000000       8.17917268       2.72639089       0.00000000      -0.00000000      -0.00000000
Si       1.36319545       9.54236813       4.08958634      -0.00000000       0.00000000      -0.00000000
Si       2.72639089       5.45278179       2.72639089      -0.00000000       0.00000000      -0.00000000
Si       4.08958634       6.81597723       4.08958634       0.00000000      -0.00000000      -0.00000000
Si       2.72639089       8.17917268       0.00000000       0.00000000       0.00000000       0.00000000
Si       4.08958634       9.54236813       1.36319545       0.00000000      -0.00000000       0.00000000
Si       0.00000000       5.45278179       5.45278179       0.00000000      -0.00000000       0.00000000
Si       1.36319545       6.81597723       6.81597723      -0.00000000       0.00000000      -0.00000000
Si       0.00000000       8.17917268       8.17917268       0.00000000       0.00000000       0.00000000
Si       1.36319545       9.54236813       9.54236813       0.00000000       0.00000000       0.00000000
Si       2.72639089       5.45278179       8.17917268      -0.00000000       0.00000000       0.00000000
Si       4.08958634       6.81597723       9.54236813      -0.00000000      -0.00000000       0.00000000
Si       2.72639089       8.17917268       5.45278179      -0.00000000       0.00000000       0.00000000
Si       4.08958634       9.54236813       6.81597723      -0.00000000       0.00000000      -0.00000000
Si       0.00000000       5.45278179      10.90556358       0.00000000      -0.00000000      -0.00000000
Si       1.36319545       6.81597723      12.26875902      -0.00000000      -0.00000000       0.00000000
Si       0.00000000       8.17917268      13.63195447       0.00000000      -0.00000000       0.00000000
Si       1.36319545       9.54236813      14.99514992      -0.00000000       0.00000000      -0.00000000
Si       2.72639089       5.45278179      13.63195447      -0.00000000       0.00000000      -0.00000000
Si       4.08958634       6.81597723      14.99514992      -0.00000000      -0.00000000      -0.00000000
Si       2.72639089       8.17917268      10.90556358       0.00000000       0.00000000      -0.00000000
Si       4.08958634       9.54236813      12.26875902      -0.00000000       0.00000000      -0.00000000
Si       0.00000000      10.90556358       0.00000000       0.00000000       0.00000000      -0.00000000
Si       1.36319545      12.26875902       1.36319545      -0.00000000      -0.00000000       0.00000000
Si       0.00000000      13.63195447       2.72639089       0.00000000      -0.00000000      -0.00000000
Si       1.36319545      14.99514992       4.08958634      -0.00000000      -0.00000000      -0.00000000
Si       2.72639089      10.90556358       2.72639089       0.00000000       0.00000000      -0.00000000
Si       4.08958634      12.26875902       4.08958634      -0.00000000       0.00000000      -0.00000000
Si       2.72639089      13.63195447       0.00000000       0.00000000      -0.00000000       0.00000000
Si       4.08958634      14.99514992       1.36319545      -0.00000000      -0.00000000      -0.00000000
Si       0.00000000      10.90556358       5.45278179       0.00000000      -0.00000000       0.00000000
Si       1.36319545      12.26875902       6.81597723       0.00000000       0.00000000      -0.00000000
Si       0.00000000      13.63195447       8.17917268      -0.00000000      -0.00000000      -0.00000000
Si       1.36319545      14.99514992       9.54236813       0.00000000      -0.00000000       0.00000000
Si       2.72639089      10.90556358       8.17917268      -0.00000000      -0.00000000       0.00000000
Si       4.08958634      12.26875902       9.54236813      -0.00000000      -0.00000000       0.00000000
Si       2.72639089      13.63195447       5.45278179       0.00000000      -0.00000000       0.00000000
Si       4.08958634      14.99514992       6.81597723      -0.00000000      -0.00000000      -0.00000000
Si       0.00000000      10.90556358      10.90556358       0.00000000      -0.00000000       0.00000000