216
Lattice="16.38223612406147 8.179471045874715e-15 -1.0668322324220314e-14 8.179471045874715e-15 16.382236124061475 -2.981997718710872e-14 -1.0668322324220314e-14 -2.981997718710872e-14 16.382236124061468" Properties=species:S:1:pos:R:3:forces:R:3 energy=-35246.39366226461 pbc="T T T"
Si       0.00000000       0.00000000      -0.00000000      -0.00000000      -0.00000000       0.00000000
Si       1.36518634       1.36518634       1.36518634       0.00000000      -0.00000000      -0.00000000
Si       2.73037269       2.73037269      -0.00000000      -0.00000000      -0.00000000       0.00000000
Si       4.09555903       4.09555903       1.36518634       0.00000000       0.00000000      -0.00000000
Si       2.73037269      -0.00000000       2.73037269      -0.00000000       0.00000000       0.00000000
Si       4.09555903       1.36518634       4.09555903       0.00000000       0.00000000      -0.00000000
Si      -0.00000000       2.73037269       2.73037269      -0.00000000      -0.00000000       0.00000000
Si       1.36518634       4.09555903       4.09555903       0.00000000       0.00000000       0.00000000
Si      -0.00000000      -0.00000000       5.46074537      -0.00000000      -0.00000000       0.00000000
Si       1.36518634       1.36518634       6.82593172       0.00000000       0.00000000      -0.00000000
Si       2.73037269       2.73037269       5.46074537      -0.00000000      -0.00000000      -0.00000000
Si       4.09555903       4.09555903       6.82593172       0.00000000       0.00000000      -0.00000000
Si       2.73037269      -0.00000000       8.19111806      -0.00000000      -0.00000000       0.00000000
Si       4.09555903       1.36518634       9.55630441       0.00000000      -0.00000000       0.00000000
Si      -0.00000000       2.73037269       8.19111806      -0.00000000      -0.00000000       0.00000000
Si       1.36518634       4.09555903       9.55630441       0.00000000      -0.00000000      -0.00000000
Si      -0.00000000      -0.00000000      10.92149075      -0.00000000      -0.00000000       0.00000000
Si       1.36518634       1.36518634      12.28667709       0.00000000       0.00000000      -0.00000000
Si       2.73037269       2.73037269      10.92149075      -0.00000000      -0.00000000       0.00000000
Si       4.09555903       4.09555903      12.28667709       0.00000000      -0.00000000      -0.00000000
Si       2.73037269      -0.00000000      13.65186344      -0.00000000      -0.00000000      -0.00000000
Si       4.09555903       1.36518634      15.01704978       0.00000000       0.00000000      -0.00000000
Si      -0.00000000       2.73037269      13.65186344      -0.00000000      -0.00000000      -0.00000000
Si       1.36518634       4.09555903      15.01704978       0.00000000      -0.00000000      -0.00000000
Si       0.00000000       5.46074537      -0.00000000      -0.00000000      -0.00000000       0.00000000
Si       1.36518634       6.82593172       1.36518634       0.00000000       0.00000000      -0.00000000
Si       2.73037269       8.19111806      -0.00000000      -0.00000000       0.00000000       0.00000000
Si       4.09555903       9.55630441       1.36518634       0.00000000      -0.00000000      -0.00000000
Si       2.73037269       5.46074537       2.73037269      -0.00000000       0.00000000       0.00000000
Si       4.09555903       6.82593172       4.09555903       0.00000000       0.00000000       0.00000000
Si       0.00000000       8.19111806       2.73037269      -0.00000000       0.00000000      -0.00000000
Si       1.36518634       9.55630441       4.09555903       0.00000000      -0.00000000      -0.00000000
Si      -0.00000000       5.46074537       5.46074537      -0.00000000      -0.00000000       0.00000000
Si       1.36518634       6.82593172       6.82593172       0.00000000       0.00000000      -0.00000000
Si       2.73037269       8.19111806       5.46074537      -0.00000000      -0.00000000       0.00000000
Si       4.09555903       9.55630441       6.82593172       0.00000000      -0.00000000      -0.00000000
Si       2.73037269       5.46074537       8.19111806      -0.00000000       0.00000000       0.00000000
Si       4.09555903       6.82593172       9.55630441       0.00000000       0.00000000      -0.00000000
Si      -0.00000000       8.19111806       8.19111806      -0.00000000      -0.00000000       0.00000000
Si       1.36518634       9.55630441       9.55630441       0.00000000      -0.00000000      -0.00000000
Si      -0.00000000       5.46074537      10.92149075      -0.00000000       0.00000000       0.00000000
Si       1.36518634       6.82593172      12.28667709       0.00000000      -0.00000000      -0.00000000
Si       2.73037269       8.19111806      10.92149075      -0.00000000      -0.00000000       0.00000000
Si       4.09555903       9.55630441      12.28667709       0.00000000       0.00000000      -0.00000000
Si       2.73037269       5.46074537      13.65186344      -0.00000000       0.00000000      -0.00000000
Si       4.09555903       6.82593172      15.01704978       0.00000000      -0.00000000      -0.00000000
Si      -0.00000000       8.19111806      13.65186344      -0.00000000       0.00000000      -0.00000000
Si       1.36518634       9.55630441      15.01704978       0.00000000      -0.00000000       0.00000000
Si       0.00000000      10.92149075      -0.00000000      -0.00000000       0.00000000       0.00000000
Si       1.36518634      12.28667709       1.36518634       0.00000000      -0.00000000      -0.00000000
Si       2.73037269      13.65186344      -0.00000000      -0.00000000       0.00000000       0.00000000
Si       4.09555903      15.01704978       1.36518634       0.00000000      -0.00000000      -0.00000000
Si       2.73037269      10.92149075       2.73037269      -0.00000000       0.00000000      -0.00000000
Si       4.09555903      12.28667709       4.09555903       0.00000000       0.00000000      -0.00000000
Si       0.00000000      13.65186344       2.73037269      -0.00000000       0.00000000       0.00000000
Si       1.36518634      15.01704978       4.09555903       0.00000000      -0.00000000      -0.00000000
Si       0.00000000      10.92149075       5.46074537      -0.00000000       0.00000000       0.00000000
Si       1.36518634      12.28667709       6.82593172       0.00000000       0.00000000      -0.00000000
Si       2.73037269      13.65186344       5.46074537      -0.00000000       0.00000000       0.00000000
Si       4.09555903      15.01704978       6.82593172       0.00000000       0.00000000      -0.00000000
Si       2.73037269      10.92149075       8.19111806      -0.00000000       0.00000000       0.00000000
Si       4.09555903      12.28667709       9.55630441       0.00000000       0.00000000       0.00000000
Si       0.00000000      13.65186344       8.19111806      -0.00000000      -0.00000000       0.00000000
Si       1.36518634      15.01704978       9.55630441       0.00000000       0.00000000      -0.00000000
Si      -0.00000000      10.92149075      10.92149075      -0.00000000      -0.00000000       0.00000000
Si       1.36518634      12.28667709      12.28667709       0.00000000       0.00000000      -0.00000000
Si       2.73037269      13.65186344      10.92149075      -0.00000000      -0.00000000       0.00000000
Si       4.09555903      15.01704978      12.28667709       0.00000000       0.00000000      -0.00000000
Si       2.73037269      10.92149075      13.65186344      -0.00000000       0.00000000      -0.00000000
Si       4.09555903      12.28667709      15.01704978       0.00000000      -0.00000000      -0.00000000
Si      -0.00000000      13.65186344      13.65186344      -0.00000000      -0.00000000      -0.00000000
Si       1.36518634      15.01704978      15.01704978       0.00000000      -0.00000000      -0.00000000
Si       5.46074537       0.00000000      -0.00000000      -0.00000000      -0.00000000       0.00000000
Si       6.82593172       1.36518634       1.36518634       0.00000000       0.00000000      -0.00000000
Si       8.19111806       2.73037269      -0.00000000      -0.00000000       0.00000000       0.00000000
Si       9.55630441       4.09555903       1.36518634       0.00000000       0.00000000      -0.00000000
Si       8.19111806      -0.00000000       2.73037269      -0.00000000       0.00000000       0.00000000
Si       9.55630441       1.36518634       4.09555903       0.00000000       0.00000000       0.00000000
Si       5.46074537       2.73037269       2.73037269      -0.00000000      -0.00000000       0.00000000
Si       6.82593172       4.09555903       4.09555903       0.00000000       0.00000000      -0.00000000
Si       5.46074537      -0.00000000       5.46074537      -0.00000000       0.00000000       0.00000000
Si       6.82593172       1.36518634       6.82593172       0.00000000       0.00000000      -0.00000000
Si       8.19111806       2.73037269       5.46074537      -0.00000000      -0.00000000       0.00000000
Si       9.55630441       4.09555903       6.82593172       0.00000000       0.00000000      -0.00000000
Si       8.19111806      -0.00000000       8.19111806      -0.00000000       0.00000000      -0.00000000
Si       9.55630441       1.36518634       9.55630441       0.00000000      -0.00000000       0.00000000
Si       5.46074537       2.73037269       8.19111806      -0.00000000      -0.00000000      -0.00000000
Si       6.82593172       4.09555903       9.55630441       0.00000000       0.00000000       0.00000000
Si       5.46074537      -0.00000000      10.92149075      -0.00000000      -0.00000000       0.00000000
Si       6.82593172       1.36518634      12.28667709       0.00000000      -0.00000000      -0.00000000
Si       8.19111806       2.73037269      10.92149075      -0.00000000      -0.00000000       0.00000000
Si       9.55630441       4.09555903      12.28667709       0.00000000      -0.00000000      -0.00000000
Si       8.19111806      -0.00000000      13.65186344      -0.00000000       0.00000000      -0.00000000
Si       9.55630441       1.36518634      15.01704978       0.00000000      -0.00000000      -0.00000000
Si       5.46074537       2.73037269      13.65186344      -0.00000000      -0.00000000      -0.00000000
Si       6.82593172       4.09555903      15.01704978       0.00000000      -0.00000000      -0.00000000
Si       5.46074537       5.46074537      -0.00000000      -0.00000000      -0.00000000       0.00000000
Si       6.82593172       6.82593172       1.36518634       0.00000000       0.00000000       0.00000000
Si       8.19111806       8.19111806      -0.00000000      -0.00000000      -0.00000000       0.00000000
Si       9.55630441       9.55630441       1.36518634       0.00000000      -0.00000000       0.00000000
Si       8.19111806       5.46074537       2.73037269      -0.00000000      -0.00000000       0.00000000
Si       9.55630441       6.82593172       4.09555903       0.00000000       0.00000000      -0.00000000
Si       5.46074537       8.19111806       2.73037269      -0.00000000       0.00000000      -0.00000000
Si       6.82593172       9.55630441       4.09555903       0.00000000      -0.00000000       0.00000000
Si       5.46074537       5.46074537       5.46074537      -0.00000000      -0.00000000       0.00000000
Si       6.82593172       6.82593172       6.82593172       0.00000000       0.00000000      -0.00000000
Si       8.19111806       8.19111806       5.46074537      -0.00000000      -0.00000000       0.00000000
Si       9.55630441       9.55630441       6.82593172       0.00000000      -0.00000000      -0.00000000
Si       8.19111806       5.46074537       8.19111806      -0.00000000      -0.00000000       0.00000000
Si       9.55630441       6.82593172       9.55630441       0.00000000       0.00000000      -0.00000000
Si       5.46074537       8.19111806       8.19111806      -0.00000000      -0.00000000       0.00000000
Si       6.82593172       9.55630441       9.55630441       0.00000000       0.00000000      -0.00000000
Si       5.46074537       5.46074537      10.92149075      -0.00000000       0.00000000       0.00000000
Si       6.82593172       6.82593172      12.28667709       0.00000000      -0.00000000      -0.00000000
Si       8.19111806       8.19111806      10.92149075      -0.00000000      -0.00000000       0.00000000
Si       9.55630441       9.55630441      12.28667709       0.00000000       0.00000000      -0.00000000
Si       8.19111806       5.46074537      13.65186344      -0.00000000      -0.00000000      -0.00000000
Si       9.55630441       6.82593172      15.01704978       0.00000000       0.00000000      -0.00000000
Si       5.46074537       8.19111806      13.65186344      -0.00000000       0.00000000       0.00000000
Si       6.82593172       9.55630441      15.01704978       0.00000000      -0.00000000      -0.00000000
Si       5.46074537      10.92149075      -0.00000000      -0.00000000       0.00000000       0.00000000
Si       6.82593172      12.28667709       1.36518634       0.00000000      -0.00000000      -0.00000000
Si       8.19111806      13.65186344      -0.00000000      -0.00000000       0.00000000       0.00000000
Si       9.55630441      15.01704978       1.36518634       0.00000000      -0.00000000      -0.00000000
Si       8.19111806      10.92149075       2.73037269      -0.00000000       0.00000000       0.00000000
Si       9.55630441      12.28667709       4.09555903       0.00000000       0.00000000      -0.00000000
Si       5.46074537      13.65186344       2.73037269      -0.00000000       0.00000000       0.00000000
Si       6.82593172      15.01704978       4.09555903       0.00000000      -0.00000000      -0.00000000
Si       5.46074537      10.92149075       5.46074537      -0.00000000       0.00000000       0.00000000
Si       6.82593172      12.28667709       6.82593172       0.00000000       0.00000000      -0.00000000
Si       8.19111806      13.65186344       5.46074537      -0.00000000      -0.00000000      -0.00000000
Si       9.55630441      15.01704978       6.82593172       0.00000000       0.00000000      -0.00000000
Si       8.19111806      10.92149075       8.19111806      -0.00000000      -0.00000000      -0.00000000
Si       9.55630441      12.28667709       9.55630441       0.00000000       0.00000000      -0.00000000
Si       5.46074537      13.65186344       8.19111806      -0.00000000      -0.00000000       0.00000000
Si       6.82593172      15.01704978       9.55630441       0.00000000       0.00000000       0.00000000
Si       5.46074537      10.92149075      10.92149075      -0.00000000      -0.00000000       0.00000000
Si       6.82593172      12.28667709      12.28667709       0.00000000       0.00000000      -0.00000000
Si       8.19111806      13.65186344      10.92149075      -0.00000000      -0.00000000       0.00000000
Si       9.55630441      15.01704978      12.28667709       0.00000000       0.00000000      -0.00000000
Si       8.19111806      10.92149075      13.65186344      -0.00000000      -0.00000000      -0.00000000
Si       9.55630441      12.28667709      15.01704978       0.00000000      -0.00000000      -0.00000000
Si       5.46074537      13.65186344      13.65186344      -0.00000000      -0.00000000       0.00000000
Si       6.82593172      15.01704978      15.01704978       0.00000000       0.00000000      -0.00000000
Si      10.92149075       0.00000000      -0.00000000      -0.00000000       0.00000000       0.00000000
Si      12.28667709       1.36518634       1.36518634       0.00000000      -0.00000000      -0.00000000
Si      13.65186344       2.73037269      -0.00000000      -0.00000000       0.00000000       0.00000000
Si      15.01704978       4.09555903       1.36518634       0.00000000       0.00000000      -0.00000000
Si      13.65186344       0.00000000       2.73037269      -0.00000000      -0.00000000       0.00000000
Si      15.01704978       1.36518634       4.09555903       0.00000000       0.00000000      -0.00000000
Si      10.92149075       2.73037269       2.73037269      -0.00000000       0.00000000       0.00000000
Si      12.28667709       4.09555903       4.09555903       0.00000000      -0.00000000       0.00000000
Si      10.92149075      -0.00000000       5.46074537      -0.00000000       0.00000000       0.00000000
Si      12.28667709       1.36518634       6.82593172       0.00000000       0.00000000      -0.00000000
Si      13.65186344       2.73037269       5.46074537      -0.00000000      -0.00000000      -0.00000000
Si      15.01704978       4.09555903       6.82593172       0.00000000      -0.00000000      -0.00000000
Si      13.65186344      -0.00000000       8.19111806      -0.00000000      -0.00000000       0.00000000
Si      15.01704978       1.36518634       9.55630441       0.00000000       0.00000000      -0.00000000
Si      10.92149075       2.73037269       8.19111806      -0.00000000      -0.00000000      -0.00000000
Si      12.28667709       4.09555903       9.55630441       0.00000000       0.00000000      -0.00000000
Si      10.92149075      -0.00000000      10.92149075      -0.00000000      -0.00000000       0.00000000
Si      12.28667709       1.36518634      12.28667709       0.00000000       0.00000000      -0.00000000
Si      13.65186344       2.73037269      10.92149075      -0.00000000       0.00000000       0.00000000
Si      15.01704978       4.09555903      12.28667709      -0.00000000      -0.00000000      -0.00000000
Si      13.65186344      -0.00000000      13.65186344      -0.00000000      -0.00000000       0.00000000
Si      15.01704978       1.36518634      15.01704978       0.00000000       0.00000000      -0.00000000
Si      10.92149075       2.73037269      13.65186344      -0.00000000       0.00000000      -0.00000000
Si      12.28667709       4.09555903      15.01704978       0.00000000       0.00000000      -0.00000000
Si      10.92149075       5.46074537      -0.00000000      -0.00000000      -0.00000000       0.00000000
Si      12.28667709       6.82593172       1.36518634       0.00000000       0.00000000      -0.00000000
Si      13.65186344       8.19111806      -0.00000000      -0.00000000       0.00000000       0.00000000
Si      15.01704978       9.55630441       1.36518634      -0.00000000      -0.00000000      -0.00000000
Si      13.65186344       5.46074537       2.73037269      -0.00000000       0.00000000       0.00000000
Si      15.01704978       6.82593172       4.09555903       0.00000000       0.00000000       0.00000000
Si      10.92149075       8.19111806       2.73037269      -0.00000000      -0.00000000       0.00000000
Si      12.28667709       9.55630441       4.09555903       0.00000000      -0.00000000      -0.00000000
Si      10.92149075       5.46074537       5.46074537      -0.00000000      -0.00000000      -0.00000000
Si      12.28667709       6.82593172       6.82593172       0.00000000       0.00000000      -0.00000000
Si      13.65186344       8.19111806       5.46074537      -0.00000000       0.00000000       0.00000000
Si      15.01704978       9.55630441       6.82593172      -0.00000000      -0.00000000      -0.00000000
Si      13.65186344       5.46074537       8.19111806      -0.00000000       0.00000000       0.00000000
Si      15.01704978       6.82593172       9.55630441       0.00000000      -0.00000000      -0.00000000
Si      10.92149075       8.19111806       8.19111806      -0.00000000      -0.00000000       0.00000000
Si      12.28667709       9.55630441       9.55630441       0.00000000      -0.00000000       0.00000000
Si      10.92149075       5.46074537      10.92149075      -0.00000000      -0.00000000       0.00000000
Si      12.28667709       6.82593172      12.28667709       0.00000000      -0.00000000      -0.00000000
Si      13.65186344       8.19111806      10.92149075      -0.00000000       0.00000000       0.00000000
Si      15.01704978       9.55630441      12.28667709      -0.00000000      -0.00000000      -0.00000000
Si      13.65186344       5.46074537      13.65186344      -0.00000000       0.00000000      -0.00000000
Si      15.01704978       6.82593172      15.01704978      -0.00000000      -0.00000000       0.00000000
Si      10.92149075       8.19111806      13.65186344      -0.00000000      -0.00000000      -0.00000000
Si      12.28667709       9.55630441      15.01704978       0.00000000      -0.00000000       0.00000000
Si      10.92149075      10.92149075      -0.00000000      -0.00000000       0.00000000       0.00000000
Si      12.28667709      12.28667709       1.36518634       0.00000000      -0.00000000      -0.00000000
Si      13.65186344      13.65186344      -0.00000000      -0.00000000       0.00000000       0.00000000
Si      15.01704978      15.01704978       1.36518634       0.00000000      -0.00000000       0.00000000
Si      13.65186344      10.92149075       2.73037269      -0.00000000       0.00000000      -0.00000000
Si      15.01704978      12.28667709       4.09555903       0.00000000      -0.00000000      -0.00000000
Si      10.92149075      13.65186344       2.73037269      -0.00000000       0.00000000       0.00000000
Si      12.28667709      15.01704978       4.09555903       0.00000000      -0.00000000      -0.00000000
Si      10.92149075      10.92149075       5.46074537      -0.00000000       0.00000000       0.00000000
Si      12.28667709      12.28667709       6.82593172       0.00000000      -0.00000000      -0.00000000
Si      13.65186344      13.65186344       5.46074537      -0.00000000       0.00000000       0.00000000
Si      15.01704978      15.01704978       6.82593172       0.00000000       0.00000000      -0.00000000
Si      13.65186344      10.92149075       8.19111806      -0.00000000       0.00000000      -0.00000000
Si      15.01704978      12.28667709       9.55630441      -0.00000000       0.00000000      -0.00000000
Si      10.92149075      13.65186344       8.19111806      -0.00000000      -0.00000000       0.00000000
Si      12.28667709      15.01704978       9.55630441       0.00000000      -0.00000000       0.00000000
Si      10.92149075      10.92149075      10.92149075      -0.00000000      -0.00000000       0.00000000
Si      12.28667709      12.28667709      12.28667709       0.00000000       0.00000000      -0.00000000
Si      13.65186344      13.65186344      10.92149075      -0.00000000      -0.00000000       0.00000000
Si      15.01704978      15.01704978      12.28667709       0.00000000       0.00000000      -0.00000000
Si      13.65186344      10.92149075      13.65186344       0.00000000       0.00000000      -0.00000000
Si      15.01704978      12.28667709      15.01704978       0.00000000      -0.00000000      -0.00000000
Si      10.92149075      13.65186344      13.65186344      -0.00000000       0.00000000      -0.00000000
Si      12.28667709      15.01704978      15.01704978       0.00000000      -0.00000000      -0.00000000
