(written by ASE)

2744 atoms
1 atom types

0.0      37.800000000000004  xlo xhi
0.0      37.800000000000004  ylo yhi
0.0      37.800000000000004  zlo zhi

Atoms # atomic

     1   1    0.049671415301123269   -0.013826430117118467    0.064768853810069249
     2   1      1.5023029856408026      1.3265846625276665      1.3265863043050821
     3   1     0.15792128155073915      2.7767434729152911       2.653052561406505
     4   1      1.4042560043585965       4.003658230718754      4.0034270246429751
     5   1      2.7241962271566038    -0.19132802446577979      2.5275082167486969
     6   1      3.9937712470759035      1.2487168879665578      4.0814247332595279
     7   1      2.6091975924478792      2.5587696298664708     0.14656487689215542
     8   1      4.0274223699513474      4.0567528204687928      1.2075251813786545
     9   1   -0.054438272452518269    0.011092258970986609        5.28490064225777
    10   1      1.3875698018345672      1.2899361310081197       6.720830625020672
    11   1   -0.060170661222939695      2.8852278184508942      8.0986502775262075
    12   1      1.2442289071044101      4.1322544912103201      9.3279156350028991
    13   1      2.7208863595004757    -0.19596701238797756       7.967181395110158
    14   1      4.0696861235869131      1.4238466579995412      9.4671368281189974
    15   1      2.6884351717611761      2.6698896304410713      5.2521478009632574
    16   1      3.9780155791605298      4.0039361229040216      6.8557122226218912
    17   1    0.034361828956846141     -0.1763040155362734       10.83240839693948
    18   1      1.3114917719583685      1.2823077999694041      12.211167628884088
    19   1      0.1030999522495951        2.79312801191162      13.416078247677737
    20   1      1.3190787624148785      4.0831263431403571      14.947554512712237
    21   1      2.6520825762154714   -0.018565897666381712      13.389366502599398
    22   1      3.9303793375919338        1.43125258223942      14.985624002857083
    23   1      2.6927989878419667      2.8003532897892027      10.836163602504763
    24   1      3.9854880245394884      4.0861395605508424      12.303803656646597
    25   1  -0.0035826039109951541     0.15646436558140064      15.938025489591029
    26   1      1.4321902504375226      1.3587047068238172      17.520099264953416
    27   1   0.0091760776535502308      2.5012431085399109      18.878032811216251
    28   1      1.3857112571511747      4.1977894044741522      20.198172978172639
    29   1      2.6191506397106812   -0.050175704358453657      18.991540211770211
    30   1      4.0828751109659693      1.2970239796232963      20.301326743311339
    31   1      2.7097077549348043      2.7968644990532892      16.129794690612268
    32   1       4.017233785340224      4.0107891846867849      17.403648505186794
    33   1    0.029612027706457607    0.026105527217988936      21.600511345664248
    34   1      1.3265412866624855      1.2084629257949586      22.907935467723465
    35   1   -0.034271451652676949      2.6197722730778383        24.2838714288334
    36   1      1.3904050856814538       4.238618590121054      25.667457781283186
    37   1      2.7257550390722765  -0.0074445915766167218      24.108122878470098
    38   1       4.047348612455079      1.3560230209941027       25.89632421124853
    39   1      2.6807639035218878      2.7301547342333614      21.596528823029477
    40   1      3.9331321962380477       4.164282281451503      23.025193303268679
    41   1      0.0791031947043047   -0.090938745479473893       27.14027943109361
    42   1       1.209814893720772      1.4086857093800271         28.569045562581
    43   1    -0.09905363251306884       2.643370227039723      29.709965136508764
    44   1      1.2996524345883802      3.8949336568933877      31.056856297480604
    45   1      2.5937696286273897    0.047359243063518158       29.60805757657662
    46   1      4.2049934405017551      1.2716746707663764      31.017793848379434
    47   1       2.781351721736967      2.5769135683566047      27.022745993460411
    48   1      4.1807142754282438       3.889251676543878      28.368463385853232
    49   1    0.025988279424842355    0.078182287177731041      32.276304928912197
    50   1      1.2179543386915725      1.4021941565616898      33.779698467323328
    51   1    0.025049285034587657      2.7346448209496979      35.031997527842158
    52   1      1.3732253697161005      4.0793072473298686      36.378564858197365
    53   1      2.8865774511144759    0.047383292091178753      34.980869650279743
    54   1      4.1156553608633839      1.2525318329772679      36.528708460374247
    55   1      2.8158595579007404      2.6179317681648291      32.496337612924435
    56   1      4.0912780926936509      4.1322060159994498      33.939679298265403
    57   1    -0.02453881160028705      5.3246263835642518   -0.088951442962552335
    58   1      1.2684189715034562      6.7422898290585893      1.3841151974816646
    59   1    0.027669079933001908       8.182718324903604       2.701300189187791
    60   1      1.4953534077157318      9.4235343166762053      4.3220169166589626
    61   1      2.7625667347765006      5.3142842443583724      2.5929107501938891
    62   1      4.0982472415243194      6.7276537214674148      4.1214000494092096
    63   1      2.7473237624573548      8.0927171087343144     -0.0846793718068405
    64   1      3.8985152775314145      9.4053485047932988      1.4356398794323473
    65   1    0.021409374413020398      5.2754261221288017       5.417318092585119
    66   1      1.3885317379728839      6.6616142563798864      6.7653725105945526
    67   1   0.0058208718445999898      7.9857029702169395      8.1357787360348297
    68   1      1.4060784526368235      9.5583051243175294      9.5553802052034911
    69   1      2.5622330632042911      5.3062174960084878      8.1515035267208678
    70   1      4.1013785950912212      6.8015047686306049      9.8352731490654737
    71   1      2.7570890510693169      8.2135565640180612       5.495400176349321
    72   1      4.1151391251305807      9.4184730755359674      6.8258969220493269
    73   1   -0.077282521453757191      5.3763181393259991       10.75146364521709
    74   1      1.3581874139386323      6.9814658566673504      11.963273480740826
    75   1    0.068626019037451344      7.9387284128810363      13.452806813421057
    76   1      1.4588950596967367       9.456428001909547       14.74222552220707
    77   1      2.6284696290740035      5.4679597748934681      13.426963336828287
    78   1      4.0716458589581981      6.7545571839903813      14.784839965239419
    79   1      2.9143944089325329      8.1633919022318029      10.597485741334239
    80   1      4.0686454314769431       9.383821353523162      12.235243333479623
    81   1   -0.079252073843270071      5.3885263558533101      16.250498727898048
    82   1      1.4365755194170122      6.6299703592944228      17.516549876415908
    83   1   -0.047494531116095619      8.0346670767426307      19.076545424028112
    84   1      1.3904981710960957      9.3239116045664971      20.341786194705481
    85   1      2.9122156197012634      5.5032465260551149      18.748063003404599
    86   1      4.0015765927133753      6.8766911149186623      20.179233053438125
    87   1       2.744381942814623      8.1774634053429356      16.107306952842194
    88   1      4.0440474643938211      9.1258732659930946      17.447561235866576
    89   1   -0.025256815139316033      5.2752216818035151      21.763241130393165
    90   1      1.2069858622039369       6.705995551330302      22.963074057728612
    91   1     0.14412732890661156      7.9564137848820575      24.416316375215498
    92   1      1.3510233061019588      9.3518491348952058       25.69621034742633
    93   1      2.7199059695573471      5.3399783122841207      24.306980208499002
    94   1      4.0114686403138249      6.7613517345251246      25.716213067452106
    95   1      2.8586016816145352      7.9762184501173161      21.813303337465626
    96   1      3.8547912200477503      9.4348214904964429      23.008831720648459
    97   1    0.028099186773503267      5.3377300480179413      26.979187774964274
    98   1      1.3006999065341167      6.6910635243055792      28.434960209702105
    99   1    0.035701548596504734      8.0307090404739352      29.789959987543323
   100   1       1.380729952087661      9.5312862118838968      31.112962884192363
   101   1      2.6171004989077931      5.3439818959803036      29.774729360512325
   102   1      4.1110370265433476      6.7479098406035849      31.061732738330878
   103   1      2.8277664895788428      8.0408428611164187      27.054709738117005
   104   1      4.0297807347566117      9.4282318796772788       28.45987768519872
   105   1    0.082541634898802993      5.4813509636000646      32.530547880715439
   106   1      1.3521003841632759      6.8181952971294963      33.718973324340659
   107   1    0.032416635248844215      8.0869856945632321      35.109699596499283
   108   1      1.4095157025436915      9.3681779316766534       36.65923872756855
   109   1        2.59939826185003      5.2785811387212274      35.215811087350012
   110   1      4.1291662693962943      6.8124119817052158      36.512834550926428
   111   1      2.6987753227153086      8.0102745628514178      32.407580455819378
   112   1      3.9822838288487894       9.547511973341777      33.735294261849795
   113   1   -0.082549719679251163      10.767861415834702    0.041293145427562433
   114   1      1.2936275447196026      12.067777960443356      1.3743687211491913
   115   1    0.024496657110872278      13.449305682462887      2.6528961694381681
   116   1      1.3732049937357638      14.705191565850269      3.9092536225623453
   117   1      2.6281555778747565      10.778655284828815      2.7310907565598006
   118   1      4.1975356216949562      12.235765962320203      4.0340061470036579
   119   1      2.6980983792097315      13.399747063536219  -0.0018513135992389931
   120   1      4.0211341361079871       14.88227185603381      1.2672769056447677
   121   1    0.051934651424117233      10.953273891300258      5.3891239851543142
   122   1      1.3901711722098942      12.219014399171112      6.7098779528114161
   123   1    0.022409248181041678      13.501259240078179      8.1097676098548845
   124   1      1.2726990216144534      14.852451017425896      9.4997998291245462
   125   1      2.8451143607795042      10.895927082608521      8.3153182457511576
   126   1      3.9732652437111957      12.237232063672067      9.4683342005738371
   127   1      2.9189802933217672      13.419170171464485       5.316027815781923
   128   1      3.9900607354555984      14.637610427569021       6.697424497831924
   129   1   -0.075913266155369807      10.815039378647622      10.834175597577717
   130   1      1.5376170839215888      12.245042383818605      12.092309634433761
   131   1   -0.089841467134835803      13.549191917150651      13.367976679297936
   132   1      1.5331458765854356      14.967944012072131       14.80308243478953
   133   1      2.5286865470909126      10.935387237416542      13.488546015474737
   134   1      4.1737816311973468      11.990557234120564      14.790062497704625
   135   1      2.7005243699718187      13.504698059376475      10.754993452852077
   136   1      4.1122849932347503      14.743237957061742      12.135762051497871
   137   1    0.012029563171189887      10.851443883405876      16.271161487808893
   138   1      1.2375357908162132      11.996588582926439      17.677767682189856
   139   1    0.033231401197959164      13.425151346344345      19.055115197552254
   140   1       1.361567463429286      14.967929718406385      20.256751848141015
   141   1      2.9060747924881989      10.975534084244321      18.875103585152093
   142   1      4.1471570950954364      12.214537594958514       20.38686315575324
   143   1      2.6035076539419899      13.568605145999843      16.305842448684963
   144   1      3.8741260513576892      14.731674148733424      17.346076782223996
   145   1   -0.026940683444455778      10.871754225579597      21.750235705209604
   146   1      1.3574094780419776      12.312861554557129      22.811989854178513
   147   1    -0.17033824393551547      13.494445230110339      24.338406544893932
   148   1      1.3467305251905908      14.643255789996013      25.641087996048725
   149   1      2.5695530499495147      10.866967254883004      24.336659824609686
   150   1      3.9560120213672652      12.098613308266332      25.544078647811109
   151   1      2.6937320902726829      13.595514232050125      21.501427395366449
   152   1      4.1004046515517851      14.796974238162758      22.870712716773767
   153   1   -0.010703035995455783      10.696475767758063      26.944635069465281
   154   1      1.2302122107411153      12.346472513291639      28.353526355197175
   155   1   -0.069972550799258557      13.521397991073423      29.688767195030916
   156   1      1.3279030400466778      14.911416670004344      31.125750771004732
   157   1      2.6469498852389473      10.742418175935533      29.672494830284833
   158   1      3.8198078835264422      11.998480893780146      31.186687426744452
   159   1      2.8644967713501286      13.475096396044362      27.057655696305577
   160   1      4.0811250154543544      15.157888080845526      28.461957491143458
   161   1   -0.012791759148076655      10.704445955939958      32.239355367974248
   162   1      1.3703463635867223      12.074364925471571      33.607774629040243
   163   1   -0.064657288424252654       13.39184519963856      35.268714163507262
   164   1      1.4381639756949451       14.84920273586834      36.597994413889005
   165   1       2.707736830764762      10.713871579867174      35.252312407726976
   166   1      4.1038910043684664      12.046275384567355      36.430966132191642
   167   1      2.6124381746615244      13.361720026903566      32.492617754753169
   168   1      4.2409416640470141      14.710143242618088      33.806296923669066
   169   1   -0.065064256912182691      16.151287461623532    -0.05923939242388692
   170   1      1.2636009230320184      17.554852162794486      1.2669049883588963
   171   1    0.027045682577983884       18.89497618905509       2.676105195313359
   172   1      1.2592436337958404      20.192322866943169      4.1255391225825759
   173   1      2.7500917187624383      16.102244475520148      2.7099332305429229
   174   1      4.1251387123371792      17.383059471887869      4.1043360192379943
   175   1      2.6337376241054153      18.957059866859318   -0.076325915654251689
   176   1      3.8695117899335489      20.087245756211686      1.3548084946661383
   177   1    0.025972250172148187      16.109568337489563       5.463859245877738
   178   1      1.1838479937731041      17.543392020135272      6.6288983800237542
   179   1   -0.065183610780215923      18.904739867131642      8.0139586634716053
   180   1      1.3115444455770175      20.350629280921449      9.3923108130476862
   181   1      2.7835692112065145      16.087029314534242      8.1529804177915288
   182   1      4.1941568620657907      17.302835549987275      9.3703104744529533
   183   1      2.7577072127180542      18.879695461395702      5.4371145873371312
   184   1      3.9896014813284189      20.258658978747295       6.734432276460792
   185   1     0.11677820616598074      16.225442084330123      10.833760266207522
   186   1      1.3088123033877535      17.501239377592753      12.106744181218039
   187   1    0.039445214237829686      18.857901551917976      13.528977485689641
   188   1       1.557540079864544      20.337112470343172      14.817397646783217
   189   1      2.8201213922163948      16.159192462697849      13.296187546482214
   190   1      3.9491913689082603      17.362920807897417       14.81484865159587
   191   1      2.7018418379189555       19.06764373122753      10.832692737376417
   192   1      4.0280899471191143      20.332940558118352      11.928886469099211
   193   1    0.023561455810856596        16.2770865193887      16.052141375422018
   194   1      1.4643754043206929      17.583849640749445      17.508471208609926
   195   1    0.063278186610628492      19.127069285780443       18.91818662550585
   196   1      1.3748220586300337      20.204063910045978      20.165015563053526
   197   1      2.7830335816544247      16.114391617409115      18.907156623721942
   198   1      4.0022342553234891      17.597897982574644      20.283366210528698
   199   1      2.8037539944257901      18.848998360114528      16.173012506470666
   200   1        3.95212362842177      20.205570673992394       17.58773004930449
   201   1    0.075698861664535197      16.107783467582241      21.686960592010568
   202   1      1.4855637858804951      17.591343490322373       23.13767958125581
   203   1   -0.077378919910357308       18.77553452966886      24.122127975109574
   204   1      1.4996044311489185      20.315436565635409      25.644441532908957
   205   1      2.7279968626319824      16.087451095270165      24.544575197961684
   206   1      4.0629221181975232      17.560939479460494      25.722576662389873
   207   1      2.7481009231736717      18.922388402427917      21.520952554455469
   208   1      4.0971468357136001      20.438202449647505        23.0845420046155
   209   1     0.15931866266393971      16.148878432356884      26.901039517974141
   210   1      1.3374213079900352      17.555572491228872      28.459419151847097
   211   1    -0.16924646297148194      19.052955031946063      29.684199210142101
   212   1      1.3073118930052581      20.148789562473986      30.884514332813424
   213   1      2.7823170583961918      16.207331796718844      29.571003910025894
   214   1      3.9204921227936391      17.516421530070993      31.216902152528942
   215   1      2.6740408648636396       18.74968570468819      26.975425693591404
   216   1      4.0227276430252337      19.980311335705846       28.34457051334822
   217   1   -0.023093453020867797      16.269620636481346      32.584895609494538
   218   1      1.4626565029547758      17.523111130944521       33.63934740912584
   219   1     0.25733598032498606      18.905921843401451      35.101392929191306
   220   1      1.3475874912889998       20.26980847607679      36.435563958807606
   221   1      2.6426337993119766      16.145314105875965      35.096724672978411
   222   1      3.9956575228866242      17.478715421732289       36.46064302276919
   223   1      2.6745022782579149       19.05039929885827      32.134903019160703
   224   1      4.1591506851922473      20.374608519249765      33.542660976759194
   225   1    -0.03426875940803488      21.562855913400423    -0.14075116947178212
   226   1      1.2722183312409125       22.83894241545342      1.5252270443423623
   227   1    0.093567839314746118      24.427155509499418      2.7721672064043239
   228   1      1.2370948228782772      25.597547973372023      4.0989374561227923
   229   1      2.5777872191108058      21.671299843017241      2.6759674601841867
   230   1      4.0125179192450409      23.021095996820353      4.0944263311486049
   231   1      2.6639033834180923      24.415932980336425    -0.10810633275998974
   232   1      4.1115935606944269       25.70931012579684      1.3190453560686011
   233   1    0.032613302224211799      21.474888642361471      5.4924027019206907
   234   1      1.3315097863557013      22.897727697948099      6.8549009225836892
   235   1   -0.070434369054275928      24.159153870363646      7.9443370826476114
   236   1      1.4106009951345642      25.521957064750374       9.625479418198438
   237   1      2.4918070592116282      21.769645636829004      8.1211017467202637
   238   1       4.040328688812961      22.895508091319108      9.4899136114352078
   239   1      2.6962365297575155      24.410330188201652      5.4114227648662041
   240   1      4.0650301761461884      25.613638778778615      6.7443054376278937
   241   1     0.03078017688920592       21.42898316073434       10.66518145778943
   242   1      1.4243264094022716      22.967086543812798      12.131601666364732
   243   1   0.0018433933065393161      24.334758170536169      13.446024031969063
   244   1      1.2721695274597689      25.669584525509769      14.752162722238499
   245   1      2.7408252755714475      21.429741639576218      13.602915563732564
   246   1      4.0972597482413047      22.975602973431389      14.948269098394553
   247   1      2.8665474444462578      24.401437006501812      10.615912576866837
   248   1      3.9220423033264304      25.587518142230433      12.152609105021083
   249   1     0.05176590204691231      21.527425618684656      16.218676676447711
   250   1      1.2744617067646677      22.888848219700808      17.409333890315182
   251   1    -0.09232332461109044      24.164831539438367      18.802412674702268
   252   1      1.4553641796607841      25.555060111116809      20.513238206483742
   253   1      2.7493317900880889      21.618483612369488       18.81416422198188
   254   1      4.1200309879408996      22.892436217376225      20.262200981464538
   255   1      2.9560084538268798      24.290394010027537      16.314927332628571
   256   1      3.9796823574874121      25.646501150950307      17.727080063563555
   257   1   -0.062696705778776743      21.781244855799695      21.670775193545548
   258   1      1.2937533224105733      23.013240773905554      23.047255444962676
   259   1    0.062180996221719645      24.142977528010956      24.227286282417513
   260   1      1.3252481364448496      25.642556657089997       25.71206720975507
   261   1      2.7177701000933254      21.466465564128992      24.338019785100595
   262   1       4.111058574528383      23.005979044793108      25.758078072555463
   263   1      2.7833922154548905      24.345918007922844      21.592983428854136
   264   1      3.8839039066484018      25.692961821913261      22.970768768716315
   265   1    0.027157883719537347      21.472325142417972      26.891894345959173
   266   1      1.4553152853332905      22.946044484614337      28.418150069737266
   267   1   0.0028318376130461176      24.302975613949574      29.793828380597599
   268   1      1.2983955271782628      25.659612077694099      31.003772471129498
   269   1      2.6565503772567687      21.569082787653137      29.722213377163371
   270   1      4.0021251378336533      23.075575612557355      30.960539269778049
   271   1      2.6813128355838645      24.256026894172582      27.144697788435373
   272   1      4.0696554776511578      25.753184453946865      28.201443962696302
   273   1    0.026705026586925886      21.688963079562345      32.408228398927548
   274   1      1.4565480375065352      22.898271154989967      33.890934744018566
   275   1     0.22988981236192504      24.263716143956035      35.055449747859932
   276   1      1.4953384477117702      25.807957214573072      36.397713997284676
   277   1      2.6579813182904144      21.571821539113952      34.965554948896582
   278   1      3.9581348053515808      22.849585923324796      36.373220243489591
   279   1       2.696531511261322      24.323421473253653      32.555050049281412
   280   1      3.9501645959261218      25.748432239847659      33.728601115577455
   281   1  -0.0049463709652432953       27.06748194921666    -0.11227220215622986
   282   1      1.3882409746184052      28.366645220821308       1.399245126400815
   283   1     0.02891686439078181      29.945530013991089      2.6362260015748684
   284   1      1.2969003044998184      30.987685947357523      3.9944522880839752
   285   1      2.6362612872693485      27.118901653110754      2.8420504247989857
   286   1      3.9929253706250529      28.266764442689578      4.0971415556386415
   287   1      2.6447776955719031      29.763293181775552    0.020292302085129971
   288   1      3.8984255885002774      31.204750520133008      1.5295877673095521
   289   1   -0.061278869048438628        26.9612298440064      5.4285865390724908
   290   1      1.3834456789987026      28.415854427267284      6.9510204538766347
   291   1    -0.01769472274940494      29.620170275546155      7.9620680771985484
   292   1      1.2769069960058081       31.04668730271262      9.6294557863517802
   293   1       2.648238870096383      27.022378795163888       8.098357710392726
   294   1      4.1688393273448092      28.602693242587364      9.3969131227079696
   295   1      2.6510560557481782      29.804416087706908      5.4681891489626313
   296   1      4.2346707325736039      31.108392818532597      6.7140707909212942
   297   1    0.059065483069230929      27.110870358058289      10.882048218119737
   298   1        1.40072740311073      28.456667468958916      12.266929559044568
   299   1     0.13821589910375273      29.764870988758965      13.483288191968315
   300   1      1.3646713686433323      31.170650896650837      14.768306432901278
   301   1      2.7368673308872902      26.960666118767264      13.502874482293482
   302   1      4.1778451862607309      28.369109906801992      14.854643654815616
   303   1      2.5640143859020084      29.774625356602723      10.864548418114108
   304   1      4.2663254723305464      31.019222176504702      12.171915032766394
   305   1    0.024938368371075527      27.157745327976347      16.190470446761307
   306   1      1.3779021525770341      28.410789650971655      17.568660912315639
   307   1   -0.044643361455052828      29.719408999289829      19.007363174985979
   308   1      1.2473484700588942       31.06329696741469      20.179987918506086
   309   1      2.8195046628924842      26.847681309521622      18.844107815272842
   310   1      4.0877211875064532      28.506552402923436      20.243424973892704
   311   1      2.6444800473306804       29.88811570694406      16.055198609958378
   312   1      3.8301194043379927      31.094001445005333      17.499794577564742
   313   1    -0.10212328171307133      27.070835644729936      21.624380071377121
   314   1      1.2935921369263272      28.221969560132912      23.037245732828016
   315   1    0.065020117795866098      29.690082413622061      24.484663699604766
   316   1      1.2429915233673849      30.897447482907527      25.580809193011877
   317   1      2.6954413983644505       27.02433394493227      24.275876394214368
   318   1      4.0852055396514304      28.224846057580958      25.794376460407328
   319   1      2.6917848821607433      29.811729583158812      21.634272534637773
   320   1      4.0956753219153788       31.10697672802322      22.994770856001736
   321   1     0.06427227598675439      27.132915253013245      27.019652116970146
   322   1      1.4209003757588514      28.341026430571279       28.49401172154495
   323   1   -0.067639230205926978      29.880094043291081      29.695984204935566
   324   1      1.2069224897881954      31.062810441491081      30.981894834252511
   325   1      2.7840643548988724       26.93473760206976      29.655381656678522
   326   1      3.8610459269054478      28.304769368075092      30.807612067337104
   327   1      2.5416097176514278       29.77604146561443      27.078580015865082
   328   1       4.092545756178497      30.953302385687078      28.345228864385803
   329   1 -0.00036025390905684049      26.884163531080745      32.550339830176718
   330   1      1.4377362290575673      28.327903582617036      33.752688583899463
   331   1    0.020838280794755248      29.495826513157571      35.075282261747951
   332   1      1.2818015752002203      30.949837999010509      36.421889970711405
   333   1      2.8797686526849526        27.0640842861267      35.042882101021732
   334   1      4.1072582781356166        28.4899355436586       36.54246336829128
   335   1      2.7059630369920176      29.635306322229443      32.469822331361364
   336   1      4.0893485385421755      31.139519322002773      33.813517180168205
   337   1     0.10495527153193351      32.346476478843947     0.13173940656343258
   338   1      1.3697599604692401      33.957526087262536      1.2810812181910434
   339   1     0.17359638031652494      35.119791078346275      2.6348581996385554
   340   1       1.301611416594568       36.41796526918057      4.0924165946401923
   341   1        2.75228354880355      32.342629999606146       2.697564540773902
   342   1      4.2642270358611869      33.922754317010082      4.0936323669674035
   343   1        2.70380034781682      35.112003132671838    0.061351797273041665
   344   1        3.94772074348016       36.42426234625767      1.1831415926122411
   345   1    0.039922312260527927       32.46471959397028      5.3516813537700632
   346   1      1.5073986763290033      33.627423433699775      6.6035625119790176
   347   1    0.022445181855997205      35.204709830261223      8.2683927691457875
   348   1      1.3041115737131062      36.557868083343131      9.4461491530499302
   349   1       2.682737270005918      32.488365993748673      8.1652322878413433
   350   1      3.8923607843015757      33.897654034972597      9.5880091354147456
   351   1      2.6374437298490472      35.139580353343753      5.4494030186282743
   352   1      4.0760673765823912      36.394969484615459       6.682837663206195
   353   1  -0.0025554070991445281      32.517272901925942      10.854360015459443
   354   1      1.3129385667913895      33.827169871064839      11.865145737936993
   355   1     0.11487657003721036      34.926028622122196      13.463755905859687
   356   1      1.2380330105373858      36.320531852427912      14.966082678737854
   357   1      2.6532298798688112      32.434650388173075      13.495307942112081
   358   1      4.0977040827223128      33.757682189106035      14.721700777581145
   359   1       2.799626681944714      35.050624341683879      10.644341810134026