250
Lattice="14.146144202941366 0.0 0.0 0.0 14.146144202941366 0.0 0.0 0.0 14.146144202941366" Properties=species:S:1:pos:R:3:initial_magmoms:R:1:forces:R:3 strain_type=Hydrostatic strain_value=-0.005 energy=-865233.3489052322 pbc="T T T"
Fe       0.00000000       0.00000000       0.00000000       2.30000000      -0.00000000       0.00000000       0.00000000
Fe       1.41461442       1.41461442       1.41461442       2.30000000       0.00000000      -0.00000000       0.00000000
Fe       0.00000000       0.00000000       2.82922884       2.30000000      -0.00000000       0.00000000      -0.00000000
Fe       1.41461442       1.41461442       4.24384326       2.30000000       0.00000000       0.00000000       0.00000000
Fe       0.00000000       0.00000000       5.65845768       2.30000000       0.00000000       0.00000000      -0.00000000
Fe       1.41461442       1.41461442       7.07307210       2.30000000       0.00000000       0.00000000      -0.00000000
Fe       0.00000000       0.00000000       8.48768652       2.30000000      -0.00000000       0.00000000       0.00000000
Fe       1.41461442       1.41461442       9.90230094       2.30000000       0.00000000       0.00000000      -0.00000000
Fe       0.00000000       0.00000000      11.31691536       2.30000000       0.00000000      -0.00000000       0.00000000
Fe       1.41461442       1.41461442      12.73152978       2.30000000       0.00000000       0.00000000       0.00000000
Fe       0.00000000       2.82922884       0.00000000       2.30000000      -0.00000000       0.00000000      -0.00000000
Fe       1.41461442       4.24384326       1.41461442       2.30000000       0.00000000      -0.00000000       0.00000000
Fe       0.00000000       2.82922884       2.82922884       2.30000000      -0.00000000      -0.00000000       0.00000000
Fe       1.41461442       4.24384326       4.24384326       2.30000000       0.00000000      -0.00000000      -0.00000000
Fe       0.00000000       2.82922884       5.65845768       2.30000000      -0.00000000       0.00000000       0.00000000
Fe       1.41461442       4.24384326       7.07307210       2.30000000       0.00000000      -0.00000000       0.00000000
Fe       0.00000000       2.82922884       8.48768652       2.30000000      -0.00000000       0.00000000      -0.00000000
Fe       1.41461442       4.24384326       9.90230094       2.30000000       0.00000000      -0.00000000      -0.00000000
Fe       0.00000000       2.82922884      11.31691536       2.30000000       0.00000000       0.00000000      -0.00000000
Fe       1.41461442       4.24384326      12.73152978       2.30000000      -0.00000000       0.00000000      -0.00000000
Fe       0.00000000       5.65845768       0.00000000       2.30000000       0.00000000       0.00000000       0.00000000
Fe       1.41461442       7.07307210       1.41461442       2.30000000       0.00000000      -0.00000000       0.00000000
Fe       0.00000000       5.65845768       2.82922884       2.30000000       0.00000000       0.00000000      -0.00000000
Fe       1.41461442       7.07307210       4.24384326       2.30000000      -0.00000000       0.00000000      -0.00000000
Fe       0.00000000       5.65845768       5.65845768       2.30000000       0.00000000       0.00000000      -0.00000000
Fe       1.41461442       7.07307210       7.07307210       2.30000000      -0.00000000       0.00000000       0.00000000
Fe       0.00000000       5.65845768       8.48768652       2.30000000       0.00000000       0.00000000       0.00000000
Fe       1.41461442       7.07307210       9.90230094       2.30000000       0.00000000      -0.00000000      -0.00000000
Fe       0.00000000       5.65845768      11.31691536       2.30000000       0.00000000       0.00000000       0.00000000
Fe       1.41461442       7.07307210      12.73152978       2.30000000      -0.00000000       0.00000000      -0.00000000
Fe       0.00000000       8.48768652       0.00000000       2.30000000      -0.00000000      -0.00000000      -0.00000000
Fe       1.41461442       9.90230094       1.41461442       2.30000000      -0.00000000      -0.00000000       0.00000000
Fe       0.00000000       8.48768652       2.82922884       2.30000000      -0.00000000       0.00000000       0.00000000
Fe       1.41461442       9.90230094       4.24384326       2.30000000       0.00000000      -0.00000000       0.00000000
Fe       0.00000000       8.48768652       5.65845768       2.30000000      -0.00000000       0.00000000      -0.00000000
Fe       1.41461442       9.90230094       7.07307210       2.30000000       0.00000000      -0.00000000      -0.00000000
Fe       0.00000000       8.48768652       8.48768652       2.30000000       0.00000000      -0.00000000       0.00000000
Fe       1.41461442       9.90230094       9.90230094       2.30000000       0.00000000      -0.00000000      -0.00000000
Fe       0.00000000       8.48768652      11.31691536       2.30000000       0.00000000       0.00000000       0.00000000
Fe       1.41461442       9.90230094      12.73152978       2.30000000       0.00000000      -0.00000000       0.00000000
Fe       0.00000000      11.31691536       0.00000000       2.30000000      -0.00000000       0.00000000       0.00000000
Fe       1.41461442      12.73152978       1.41461442       2.30000000       0.00000000       0.00000000       0.00000000
Fe       0.00000000      11.31691536       2.82922884       2.30000000       0.00000000       0.00000000       0.00000000
Fe       1.41461442      12.73152978       4.24384326       2.30000000      -0.00000000      -0.00000000       0.00000000
Fe       0.00000000      11.31691536       5.65845768       2.30000000       0.00000000       0.00000000      -0.00000000
Fe       1.41461442      12.73152978       7.07307210       2.30000000      -0.00000000      -0.00000000       0.00000000
Fe       0.00000000      11.31691536       8.48768652       2.30000000       0.00000000       0.00000000       0.00000000
Fe       1.41461442      12.73152978       9.90230094       2.30000000       0.00000000       0.00000000      -0.00000000
Fe       0.00000000      11.31691536      11.31691536       2.30000000       0.00000000       0.00000000       0.00000000
Fe       1.41461442      12.73152978      12.73152978       2.30000000      -0.00000000      -0.00000000       0.00000000
Fe       2.82922884       0.00000000       0.00000000       2.30000000       0.00000000      -0.00000000      -0.00000000
Fe       4.24384326       1.41461442       1.41461442       2.30000000       0.00000000       0.00000000       0.00000000
Fe       2.82922884       0.00000000       2.82922884       2.30000000      -0.00000000       0.00000000       0.00000000
Fe       4.24384326       1.41461442       4.24384326       2.30000000      -0.00000000       0.00000000      -0.00000000
Fe       2.82922884       0.00000000       5.65845768       2.30000000       0.00000000      -0.00000000       0.00000000
Fe       4.24384326       1.41461442       7.07307210       2.30000000      -0.00000000       0.00000000       0.00000000
Fe       2.82922884       0.00000000       8.48768652       2.30000000       0.00000000       0.00000000       0.00000000
Fe       4.24384326       1.41461442       9.90230094       2.30000000      -0.00000000       0.00000000      -0.00000000
Fe       2.82922884       0.00000000      11.31691536       2.30000000       0.00000000      -0.00000000       0.00000000
Fe       4.24384326       1.41461442      12.73152978       2.30000000       0.00000000      -0.00000000      -0.00000000
Fe       2.82922884       2.82922884       0.00000000       2.30000000       0.00000000      -0.00000000       0.00000000
Fe       4.24384326       4.24384326       1.41461442       2.30000000      -0.00000000      -0.00000000       0.00000000
Fe       2.82922884       2.82922884       2.82922884       2.30000000       0.00000000      -0.00000000       0.00000000
Fe       4.24384326       4.24384326       4.24384326       2.30000000      -0.00000000      -0.00000000      -0.00000000
Fe       2.82922884       2.82922884       5.65845768       2.30000000       0.00000000       0.00000000      -0.00000000
Fe       4.24384326       4.24384326       7.07307210       2.30000000      -0.00000000      -0.00000000       0.00000000
Fe       2.82922884       2.82922884       8.48768652       2.30000000       0.00000000      -0.00000000       0.00000000
Fe       4.24384326       4.24384326       9.90230094       2.30000000      -0.00000000      -0.00000000       0.00000000
Fe       2.82922884       2.82922884      11.31691536       2.30000000       0.00000000       0.00000000      -0.00000000
Fe       4.24384326       4.24384326      12.73152978       2.30000000      -0.00000000      -0.00000000      -0.00000000
Fe       2.82922884       5.65845768       0.00000000       2.30000000      -0.00000000       0.00000000      -0.00000000
Fe       4.24384326       7.07307210       1.41461442       2.30000000      -0.00000000       0.00000000       0.00000000
Fe       2.82922884       5.65845768       2.82922884       2.30000000       0.00000000       0.00000000       0.00000000
Fe       4.24384326       7.07307210       4.24384326       2.30000000       0.00000000       0.00000000      -0.00000000
Fe       2.82922884       5.65845768       5.65845768       2.30000000       0.00000000       0.00000000      -0.00000000
Fe       4.24384326       7.07307210       7.07307210       2.30000000      -0.00000000       0.00000000       0.00000000
Fe       2.82922884       5.65845768       8.48768652       2.30000000       0.00000000       0.00000000       0.00000000
Fe       4.24384326       7.07307210       9.90230094       2.30000000      -0.00000000      -0.00000000      -0.00000000
Fe       2.82922884       5.65845768      11.31691536       2.30000000      -0.00000000      -0.00000000      -0.00000000
Fe       4.24384326       7.07307210      12.73152978       2.30000000      -0.00000000       0.00000000      -0.00000000
Fe       2.82922884       8.48768652       0.00000000       2.30000000      -0.00000000       0.00000000       0.00000000
Fe       4.24384326       9.90230094       1.41461442       2.30000000      -0.00000000      -0.00000000       0.00000000
Fe       2.82922884       8.48768652       2.82922884       2.30000000      -0.00000000      -0.00000000      -0.00000000
Fe       4.24384326       9.90230094       4.24384326       2.30000000      -0.00000000      -0.00000000      -0.00000000
Fe       2.82922884       8.48768652       5.65845768       2.30000000       0.00000000      -0.00000000       0.00000000
Fe       4.24384326       9.90230094       7.07307210       2.30000000       0.00000000      -0.00000000       0.00000000
Fe       2.82922884       8.48768652       8.48768652       2.30000000      -0.00000000       0.00000000      -0.00000000
Fe       4.24384326       9.90230094       9.90230094       2.30000000       0.00000000      -0.00000000      -0.00000000
Fe       2.82922884       8.48768652      11.31691536       2.30000000      -0.00000000      -0.00000000       0.00000000
Fe       4.24384326       9.90230094      12.73152978       2.30000000      -0.00000000       0.00000000      -0.00000000
Fe       2.82922884      11.31691536       0.00000000       2.30000000       0.00000000       0.00000000       0.00000000
Fe       4.24384326      12.73152978       1.41461442       2.30000000       0.00000000      -0.00000000      -0.00000000
Fe       2.82922884      11.31691536       2.82922884       2.30000000       0.00000000       0.00000000       0.00000000
Fe       4.24384326      12.73152978       4.24384326       2.30000000      -0.00000000       0.00000000      -0.00000000
Fe       2.82922884      11.31691536       5.65845768       2.30000000      -0.00000000       0.00000000      -0.00000000
Fe       4.24384326      12.73152978       7.07307210       2.30000000      -0.00000000      -0.00000000       0.00000000
Fe       2.82922884      11.31691536       8.48768652       2.30000000       0.00000000       0.00000000      -0.00000000
Fe       4.24384326      12.73152978       9.90230094       2.30000000      -0.00000000       0.00000000      -0.00000000
Fe       2.82922884      11.31691536      11.31691536       2.30000000      -0.00000000       0.00000000       0.00000000
Fe       4.24384326      12.73152978      12.73152978       2.30000000       0.00000000      -0.00000000       0.00000000
Fe       5.65845768       0.00000000       0.00000000       2.30000000       0.00000000      -0.00000000      -0.00000000
Fe       7.07307210       1.41461442       1.41461442       2.30000000      -0.00000000       0.00000000       0.00000000
Fe       5.65845768       0.00000000       2.82922884       2.30000000       0.00000000       0.00000000       0.00000000
Fe       7.07307210       1.41461442       4.24384326       2.30000000      -0.00000000      -0.00000000      -0.00000000
Fe       5.65845768       0.00000000       5.65845768       2.30000000       0.00000000       0.00000000       0.00000000
Fe       7.07307210       1.41461442       7.07307210       2.30000000       0.00000000       0.00000000       0.00000000
Fe       5.65845768       0.00000000       8.48768652       2.30000000       0.00000000       0.00000000       0.00000000
Fe       7.07307210       1.41461442       9.90230094       2.30000000      -0.00000000       0.00000000      -0.00000000
Fe       5.65845768       0.00000000      11.31691536       2.30000000       0.00000000       0.00000000      -0.00000000
Fe       7.07307210       1.41461442      12.73152978       2.30000000      -0.00000000       0.00000000       0.00000000
Fe       5.65845768       2.82922884       0.00000000       2.30000000       0.00000000       0.00000000      -0.00000000
Fe       7.07307210       4.24384326       1.41461442       2.30000000       0.00000000      -0.00000000       0.00000000
Fe       5.65845768       2.82922884       2.82922884       2.30000000      -0.00000000       0.00000000      -0.00000000
Fe       7.07307210       4.24384326       4.24384326       2.30000000      -0.00000000       0.00000000      -0.00000000
Fe       5.65845768       2.82922884       5.65845768       2.30000000      -0.00000000      -0.00000000       0.00000000
Fe       7.07307210       4.24384326       7.07307210       2.30000000       0.00000000      -0.00000000       0.00000000
Fe       5.65845768       2.82922884       8.48768652       2.30000000      -0.00000000      -0.00000000       0.00000000
Fe       7.07307210       4.24384326       9.90230094       2.30000000       0.00000000      -0.00000000      -0.00000000
Fe       5.65845768       2.82922884      11.31691536       2.30000000       0.00000000      -0.00000000      -0.00000000
Fe       7.07307210       4.24384326      12.73152978       2.30000000       0.00000000      -0.00000000       0.00000000
Fe       5.65845768       5.65845768       0.00000000       2.30000000       0.00000000       0.00000000      -0.00000000
Fe       7.07307210       7.07307210       1.41461442       2.30000000      -0.00000000       0.00000000       0.00000000
Fe       5.65845768       5.65845768       2.82922884       2.30000000       0.00000000       0.00000000       0.00000000
Fe       7.07307210       7.07307210       4.24384326       2.30000000       0.00000000       0.00000000       0.00000000
Fe       5.65845768       5.65845768       5.65845768       2.30000000       0.00000000       0.00000000      -0.00000000
Fe       7.07307210       7.07307210       7.07307210       2.30000000       0.00000000       0.00000000       0.00000000
Fe       5.65845768       5.65845768       8.48768652       2.30000000       0.00000000       0.00000000       0.00000000
Fe       7.07307210       7.07307210       9.90230094       2.30000000       0.00000000       0.00000000      -0.00000000
Fe       5.65845768       5.65845768      11.31691536       2.30000000       0.00000000      -0.00000000      -0.00000000
Fe       7.07307210       7.07307210      12.73152978       2.30000000       0.00000000       0.00000000      -0.00000000
Fe       5.65845768       8.48768652       0.00000000       2.30000000       0.00000000      -0.00000000      -0.00000000
Fe       7.07307210       9.90230094       1.41461442       2.30000000       0.00000000      -0.00000000       0.00000000
Fe       5.65845768       8.48768652       2.82922884       2.30000000       0.00000000       0.00000000       0.00000000
Fe       7.07307210       9.90230094       4.24384326       2.30000000       0.00000000      -0.00000000      -0.00000000
Fe       5.65845768       8.48768652       5.65845768       2.30000000       0.00000000      -0.00000000       0.00000000
Fe       7.07307210       9.90230094       7.07307210       2.30000000      -0.00000000      -0.00000000      -0.00000000
Fe       5.65845768       8.48768652       8.48768652       2.30000000      -0.00000000      -0.00000000      -0.00000000
Fe       7.07307210       9.90230094       9.90230094       2.30000000      -0.00000000      -0.00000000      -0.00000000
Fe       5.65845768       8.48768652      11.31691536       2.30000000       0.00000000      -0.00000000       0.00000000
Fe       7.07307210       9.90230094      12.73152978       2.30000000      -0.00000000      -0.00000000       0.00000000
Fe       5.65845768      11.31691536       0.00000000       2.30000000       0.00000000       0.00000000       0.00000000
Fe       7.07307210      12.73152978       1.41461442       2.30000000       0.00000000      -0.00000000       0.00000000
Fe       5.65845768      11.31691536       2.82922884       2.30000000      -0.00000000       0.00000000      -0.00000000
Fe       7.07307210      12.73152978       4.24384326       2.30000000       0.00000000       0.00000000      -0.00000000
Fe       5.65845768      11.31691536       5.65845768       2.30000000      -0.00000000       0.00000000      -0.00000000
Fe       7.07307210      12.73152978       7.07307210       2.30000000       0.00000000       0.00000000       0.00000000
Fe       5.65845768      11.31691536       8.48768652       2.30000000      -0.00000000       0.00000000       0.00000000
Fe       7.07307210      12.73152978       9.90230094       2.30000000       0.00000000       0.00000000      -0.00000000
Fe       5.65845768      11.31691536      11.31691536       2.30000000       0.00000000       0.00000000       0.00000000
Fe       7.07307210      12.73152978      12.73152978       2.30000000      -0.00000000       0.00000000       0.00000000
Fe       8.48768652       0.00000000       0.00000000       2.30000000       0.00000000      -0.00000000      -0.00000000
Fe       9.90230094       1.41461442       1.41461442       2.30000000      -0.00000000       0.00000000       0.00000000
Fe       8.48768652       0.00000000       2.82922884       2.30000000       0.00000000      -0.00000000      -0.00000000
Fe       9.90230094       1.41461442       4.24384326       2.30000000      -0.00000000       0.00000000       0.00000000
Fe       8.48768652       0.00000000       5.65845768       2.30000000       0.00000000      -0.00000000       0.00000000
Fe       9.90230094       1.41461442       7.07307210       2.30000000      -0.00000000       0.00000000      -0.00000000
Fe       8.48768652       0.00000000       8.48768652       2.30000000       0.00000000       0.00000000       0.00000000
Fe       9.90230094       1.41461442       9.90230094       2.30000000      -0.00000000       0.00000000      -0.00000000
Fe       8.48768652       0.00000000      11.31691536       2.30000000      -0.00000000       0.00000000       0.00000000
Fe       9.90230094       1.41461442      12.73152978       2.30000000      -0.00000000       0.00000000       0.00000000
Fe       8.48768652       2.82922884       0.00000000       2.30000000       0.00000000       0.00000000      -0.00000000
Fe       9.90230094       4.24384326       1.41461442       2.30000000      -0.00000000      -0.00000000       0.00000000
Fe       8.48768652       2.82922884       2.82922884       2.30000000       0.00000000      -0.00000000      -0.00000000
Fe       9.90230094       4.24384326       4.24384326       2.30000000       0.00000000      -0.00000000      -0.00000000
Fe       8.48768652       2.82922884       5.65845768       2.30000000       0.00000000       0.00000000       0.00000000
Fe       9.90230094       4.24384326       7.07307210       2.30000000      -0.00000000      -0.00000000       0.00000000
Fe       8.48768652       2.82922884       8.48768652       2.30000000       0.00000000      -0.00000000       0.00000000
Fe       9.90230094       4.24384326       9.90230094       2.30000000      -0.00000000      -0.00000000      -0.00000000
Fe       8.48768652       2.82922884      11.31691536       2.30000000      -0.00000000      -0.00000000       0.00000000
Fe       9.90230094       4.24384326      12.73152978       2.30000000       0.00000000      -0.00000000      -0.00000000
Fe       8.48768652       5.65845768       0.00000000       2.30000000      -0.00000000       0.00000000       0.00000000
Fe       9.90230094       7.07307210       1.41461442       2.30000000      -0.00000000       0.00000000       0.00000000
Fe       8.48768652       5.65845768       2.82922884       2.30000000       0.00000000       0.00000000      -0.00000000
Fe       9.90230094       7.07307210       4.24384326       2.30000000      -0.00000000       0.00000000      -0.00000000
Fe       8.48768652       5.65845768       5.65845768       2.30000000      -0.00000000       0.00000000      -0.00000000
Fe       9.90230094       7.07307210       7.07307210       2.30000000      -0.00000000      -0.00000000       0.00000000
Fe       8.48768652       5.65845768       8.48768652       2.30000000      -0.00000000       0.00000000       0.00000000
Fe       9.90230094       7.07307210       9.90230094       2.30000000      -0.00000000      -0.00000000      -0.00000000
Fe       8.48768652       5.65845768      11.31691536       2.30000000      -0.00000000       0.00000000       0.00000000
Fe       9.90230094       7.07307210      12.73152978       2.30000000      -0.00000000       0.00000000       0.00000000
Fe       8.48768652       8.48768652       0.00000000       2.30000000      -0.00000000       0.00000000      -0.00000000
Fe       9.90230094       9.90230094       1.41461442       2.30000000      -0.00000000      -0.00000000       0.00000000
Fe       8.48768652       8.48768652       2.82922884       2.30000000       0.00000000       0.00000000      -0.00000000
Fe       9.90230094       9.90230094       4.24384326       2.30000000      -0.00000000      -0.00000000      -0.00000000
Fe       8.48768652       8.48768652       5.65845768       2.30000000      -0.00000000      -0.00000000      -0.00000000
Fe       9.90230094       9.90230094       7.07307210       2.30000000      -0.00000000      -0.00000000      -0.00000000
Fe       8.48768652       8.48768652       8.48768652       2.30000000      -0.00000000      -0.00000000       0.00000000
Fe       9.90230094       9.90230094       9.90230094       2.30000000      -0.00000000      -0.00000000      -0.00000000
Fe       8.48768652       8.48768652      11.31691536       2.30000000      -0.00000000      -0.00000000       0.00000000
Fe       9.90230094       9.90230094      12.73152978       2.30000000      -0.00000000      -0.00000000       0.00000000
Fe       8.48768652      11.31691536       0.00000000       2.30000000      -0.00000000       0.00000000       0.00000000
Fe       9.90230094      12.73152978       1.41461442       2.30000000      -0.00000000       0.00000000      -0.00000000
Fe       8.48768652      11.31691536       2.82922884       2.30000000      -0.00000000       0.00000000      -0.00000000
Fe       9.90230094      12.73152978       4.24384326       2.30000000       0.00000000      -0.00000000      -0.00000000
Fe       8.48768652      11.31691536       5.65845768       2.30000000      -0.00000000       0.00000000       0.00000000
Fe       9.90230094      12.73152978       7.07307210       2.30000000       0.00000000      -0.00000000       0.00000000
Fe       8.48768652      11.31691536       8.48768652       2.30000000      -0.00000000       0.00000000      -0.00000000
Fe       9.90230094      12.73152978       9.90230094       2.30000000      -0.00000000       0.00000000      -0.00000000
Fe       8.48768652      11.31691536      11.31691536       2.30000000      -0.00000000       0.00000000       0.00000000
Fe       9.90230094      12.73152978      12.73152978       2.30000000       0.00000000      -0.00000000      -0.00000000
Fe      11.31691536       0.00000000       0.00000000       2.30000000       0.00000000      -0.00000000       0.00000000
Fe      12.73152978       1.41461442       1.41461442       2.30000000       0.00000000       0.00000000       0.00000000
Fe      11.31691536       0.00000000       2.82922884       2.30000000       0.00000000       0.00000000       0.00000000
Fe      12.73152978       1.41461442       4.24384326       2.30000000      -0.00000000      -0.00000000       0.00000000
Fe      11.31691536       0.00000000       5.65845768       2.30000000       0.00000000       0.00000000       0.00000000
Fe      12.73152978       1.41461442       7.07307210       2.30000000      -0.00000000       0.00000000       0.00000000
Fe      11.31691536       0.00000000       8.48768652       2.30000000       0.00000000       0.00000000       0.00000000
Fe      12.73152978       1.41461442       9.90230094       2.30000000       0.00000000       0.00000000      -0.00000000
Fe      11.31691536       0.00000000      11.31691536       2.30000000       0.00000000       0.00000000       0.00000000
Fe      12.73152978       1.41461442      12.73152978       2.30000000      -0.00000000       0.00000000      -0.00000000
Fe      11.31691536       2.82922884       0.00000000       2.30000000       0.00000000       0.00000000       0.00000000
Fe      12.73152978       4.24384326       1.41461442       2.30000000      -0.00000000       0.00000000      -0.00000000
Fe      11.31691536       2.82922884       2.82922884       2.30000000      -0.00000000       0.00000000       0.00000000
Fe      12.73152978       4.24384326       4.24384326       2.30000000      -0.00000000      -0.00000000      -0.00000000
Fe      11.31691536       2.82922884       5.65845768       2.30000000       0.00000000      -0.00000000      -0.00000000
Fe      12.73152978       4.24384326       7.07307210       2.30000000      -0.00000000      -0.00000000       0.00000000
Fe      11.31691536       2.82922884       8.48768652       2.30000000       0.00000000       0.00000000      -0.00000000
Fe      12.73152978       4.24384326       9.90230094       2.30000000      -0.00000000      -0.00000000      -0.00000000
Fe      11.31691536       2.82922884      11.31691536       2.30000000       0.00000000      -0.00000000       0.00000000
Fe      12.73152978       4.24384326      12.73152978       2.30000000       0.00000000      -0.00000000      -0.00000000
Fe      11.31691536       5.65845768       0.00000000       2.30000000       0.00000000       0.00000000       0.00000000
Fe      12.73152978       7.07307210       1.41461442       2.30000000       0.00000000       0.00000000       0.00000000
Fe      11.31691536       5.65845768       2.82922884       2.30000000      -0.00000000      -0.00000000       0.00000000
Fe      12.73152978       7.07307210       4.24384326       2.30000000      -0.00000000       0.00000000      -0.00000000
Fe      11.31691536       5.65845768       5.65845768       2.30000000       0.00000000      -0.00000000      -0.00000000
Fe      12.73152978       7.07307210       7.07307210       2.30000000       0.00000000       0.00000000       0.00000000
Fe      11.31691536       5.65845768       8.48768652       2.30000000       0.00000000      -0.00000000      -0.00000000
Fe      12.73152978       7.07307210       9.90230094       2.30000000       0.00000000      -0.00000000      -0.00000000
Fe      11.31691536       5.65845768      11.31691536       2.30000000       0.00000000       0.00000000       0.00000000
Fe      12.73152978       7.07307210      12.73152978       2.30000000       0.00000000      -0.00000000       0.00000000
Fe      11.31691536       8.48768652       0.00000000       2.30000000       0.00000000       0.00000000       0.00000000
Fe      12.73152978       9.90230094       1.41461442       2.30000000       0.00000000      -0.00000000       0.00000000
Fe      11.31691536       8.48768652       2.82922884       2.30000000       0.00000000      -0.00000000      -0.00000000
Fe      12.73152978       9.90230094       4.24384326       2.30000000       0.00000000       0.00000000       0.00000000
Fe      11.31691536       8.48768652       5.65845768       2.30000000       0.00000000      -0.00000000       0.00000000
Fe      12.73152978       9.90230094       7.07307210       2.30000000       0.00000000      -0.00000000       0.00000000
Fe      11.31691536       8.48768652       8.48768652       2.30000000       0.00000000      -0.00000000      -0.00000000
Fe      12.73152978       9.90230094       9.90230094       2.30000000      -0.00000000      -0.00000000      -0.00000000
Fe      11.31691536       8.48768652      11.31691536       2.30000000       0.00000000      -0.00000000       0.00000000
Fe      12.73152978       9.90230094      12.73152978       2.30000000       0.00000000       0.00000000      -0.00000000
Fe      11.31691536      11.31691536       0.00000000       2.30000000      -0.00000000       0.00000000       0.00000000
Fe      12.73152978      12.73152978       1.41461442       2.30000000       0.00000000      -0.00000000       0.00000000
Fe      11.31691536      11.31691536       2.82922884       2.30000000       0.00000000       0.00000000      -0.00000000