250
Lattice="14.16976047039202 7.166505889214844e-15 -1.2598721826571684e-15 7.166505889214844e-15 14.16976047039202 -1.4431007226888395e-15 -1.2598721826571684e-15 -1.4431007226888395e-15 14.169760470392042" Properties=species:S:1:pos:R:3:forces:R:3 energy=-865233.3930696486 pbc="T T T"
Fe      -0.00000000       0.00000000      -0.00000000      -0.00000000      -0.00000000      -0.00000000
Fe       1.41697605       1.41697605       1.41697605      -0.00000000      -0.00000000       0.00000000
Fe      -0.00000000      -0.00000000       2.83395209       0.00000000      -0.00000000      -0.00000000
Fe       1.41697605       1.41697605       4.25092814      -0.00000000      -0.00000000       0.00000000
Fe      -0.00000000      -0.00000000       5.66790419       0.00000000       0.00000000      -0.00000000
Fe       1.41697605       1.41697605       7.08488024       0.00000000       0.00000000       0.00000000
Fe      -0.00000000      -0.00000000       8.50185628       0.00000000       0.00000000       0.00000000
Fe       1.41697605       1.41697605       9.91883233       0.00000000      -0.00000000      -0.00000000
Fe      -0.00000000      -0.00000000      11.33580838       0.00000000       0.00000000       0.00000000
Fe       1.41697605       1.41697605      12.75278442      -0.00000000      -0.00000000       0.00000000
Fe       0.00000000       2.83395209      -0.00000000      -0.00000000      -0.00000000       0.00000000
Fe       1.41697605       4.25092814       1.41697605      -0.00000000       0.00000000      -0.00000000
Fe       0.00000000       2.83395209       2.83395209      -0.00000000       0.00000000       0.00000000
Fe       1.41697605       4.25092814       4.25092814      -0.00000000      -0.00000000       0.00000000
Fe       0.00000000       2.83395209       5.66790419       0.00000000      -0.00000000      -0.00000000
Fe       1.41697605       4.25092814       7.08488024      -0.00000000      -0.00000000      -0.00000000
Fe       0.00000000       2.83395209       8.50185628       0.00000000      -0.00000000      -0.00000000
Fe       1.41697605       4.25092814       9.91883233       0.00000000      -0.00000000      -0.00000000
Fe       0.00000000       2.83395209      11.33580838      -0.00000000      -0.00000000       0.00000000
Fe       1.41697605       4.25092814      12.75278442       0.00000000       0.00000000      -0.00000000
Fe       0.00000000       5.66790419      -0.00000000       0.00000000       0.00000000       0.00000000
Fe       1.41697605       7.08488024       1.41697605      -0.00000000       0.00000000      -0.00000000
Fe       0.00000000       5.66790419       2.83395209      -0.00000000       0.00000000       0.00000000
Fe       1.41697605       7.08488024       4.25092814      -0.00000000      -0.00000000      -0.00000000
Fe       0.00000000       5.66790419       5.66790419      -0.00000000       0.00000000      -0.00000000
Fe       1.41697605       7.08488024       7.08488024      -0.00000000      -0.00000000       0.00000000
Fe       0.00000000       5.66790419       8.50185628      -0.00000000      -0.00000000      -0.00000000
Fe       1.41697605       7.08488024       9.91883233      -0.00000000      -0.00000000      -0.00000000
Fe       0.00000000       5.66790419      11.33580838      -0.00000000       0.00000000       0.00000000
Fe       1.41697605       7.08488024      12.75278442      -0.00000000      -0.00000000      -0.00000000
Fe       0.00000000       8.50185628      -0.00000000      -0.00000000       0.00000000       0.00000000
Fe       1.41697605       9.91883233       1.41697605       0.00000000      -0.00000000      -0.00000000
Fe       0.00000000       8.50185628       2.83395209       0.00000000       0.00000000       0.00000000
Fe       1.41697605       9.91883233       4.25092814      -0.00000000      -0.00000000       0.00000000
Fe       0.00000000       8.50185628       5.66790419       0.00000000      -0.00000000      -0.00000000
Fe       1.41697605       9.91883233       7.08488024      -0.00000000      -0.00000000       0.00000000
Fe       0.00000000       8.50185628       8.50185628      -0.00000000       0.00000000      -0.00000000
Fe       1.41697605       9.91883233       9.91883233       0.00000000       0.00000000      -0.00000000
Fe       0.00000000       8.50185628      11.33580838      -0.00000000       0.00000000       0.00000000
Fe       1.41697605       9.91883233      12.75278442      -0.00000000      -0.00000000      -0.00000000
Fe       0.00000000      11.33580838      -0.00000000       0.00000000       0.00000000       0.00000000
Fe       1.41697605      12.75278442       1.41697605      -0.00000000       0.00000000      -0.00000000
Fe       0.00000000      11.33580838       2.83395209       0.00000000       0.00000000      -0.00000000
Fe       1.41697605      12.75278442       4.25092814      -0.00000000       0.00000000      -0.00000000
Fe       0.00000000      11.33580838       5.66790419       0.00000000      -0.00000000      -0.00000000
Fe       1.41697605      12.75278442       7.08488024      -0.00000000      -0.00000000      -0.00000000
Fe       0.00000000      11.33580838       8.50185628       0.00000000      -0.00000000       0.00000000
Fe       1.41697605      12.75278442       9.91883233       0.00000000      -0.00000000       0.00000000
Fe       0.00000000      11.33580838      11.33580838       0.00000000      -0.00000000       0.00000000
Fe       1.41697605      12.75278442      12.75278442       0.00000000      -0.00000000      -0.00000000
Fe       2.83395209       0.00000000      -0.00000000      -0.00000000      -0.00000000       0.00000000
Fe       4.25092814       1.41697605       1.41697605      -0.00000000       0.00000000      -0.00000000
Fe       2.83395209       0.00000000       2.83395209       0.00000000      -0.00000000       0.00000000
Fe       4.25092814       1.41697605       4.25092814      -0.00000000      -0.00000000      -0.00000000
Fe       2.83395209       0.00000000       5.66790419      -0.00000000      -0.00000000      -0.00000000
Fe       4.25092814       1.41697605       7.08488024      -0.00000000       0.00000000      -0.00000000
Fe       2.83395209       0.00000000       8.50185628      -0.00000000       0.00000000       0.00000000
Fe       4.25092814       1.41697605       9.91883233       0.00000000       0.00000000      -0.00000000
Fe       2.83395209       0.00000000      11.33580838      -0.00000000       0.00000000       0.00000000
Fe       4.25092814       1.41697605      12.75278442       0.00000000       0.00000000      -0.00000000
Fe       2.83395209       2.83395209      -0.00000000       0.00000000       0.00000000       0.00000000
Fe       4.25092814       4.25092814       1.41697605       0.00000000       0.00000000      -0.00000000
Fe       2.83395209       2.83395209       2.83395209       0.00000000       0.00000000       0.00000000
Fe       4.25092814       4.25092814       4.25092814      -0.00000000       0.00000000       0.00000000
Fe       2.83395209       2.83395209       5.66790419       0.00000000       0.00000000       0.00000000
Fe       4.25092814       4.25092814       7.08488024      -0.00000000       0.00000000       0.00000000
Fe       2.83395209       2.83395209       8.50185628       0.00000000      -0.00000000      -0.00000000
Fe       4.25092814       4.25092814       9.91883233      -0.00000000       0.00000000       0.00000000
Fe       2.83395209       2.83395209      11.33580838       0.00000000      -0.00000000       0.00000000
Fe       4.25092814       4.25092814      12.75278442      -0.00000000       0.00000000      -0.00000000
Fe       2.83395209       5.66790419      -0.00000000       0.00000000      -0.00000000       0.00000000
Fe       4.25092814       7.08488024       1.41697605       0.00000000       0.00000000      -0.00000000
Fe       2.83395209       5.66790419       2.83395209       0.00000000      -0.00000000       0.00000000
Fe       4.25092814       7.08488024       4.25092814       0.00000000      -0.00000000       0.00000000
Fe       2.83395209       5.66790419       5.66790419       0.00000000       0.00000000      -0.00000000
Fe       4.25092814       7.08488024       7.08488024       0.00000000      -0.00000000       0.00000000
Fe       2.83395209       5.66790419       8.50185628       0.00000000       0.00000000      -0.00000000
Fe       4.25092814       7.08488024       9.91883233       0.00000000      -0.00000000      -0.00000000
Fe       2.83395209       5.66790419      11.33580838       0.00000000      -0.00000000       0.00000000
Fe       4.25092814       7.08488024      12.75278442       0.00000000      -0.00000000      -0.00000000
Fe       2.83395209       8.50185628      -0.00000000       0.00000000       0.00000000       0.00000000
Fe       4.25092814       9.91883233       1.41697605       0.00000000      -0.00000000      -0.00000000
Fe       2.83395209       8.50185628       2.83395209       0.00000000       0.00000000      -0.00000000
Fe       4.25092814       9.91883233       4.25092814       0.00000000      -0.00000000      -0.00000000
Fe       2.83395209       8.50185628       5.66790419      -0.00000000       0.00000000       0.00000000
Fe       4.25092814       9.91883233       7.08488024       0.00000000      -0.00000000      -0.00000000
Fe       2.83395209       8.50185628       8.50185628       0.00000000       0.00000000      -0.00000000
Fe       4.25092814       9.91883233       9.91883233       0.00000000      -0.00000000      -0.00000000
Fe       2.83395209       8.50185628      11.33580838      -0.00000000       0.00000000       0.00000000
Fe       4.25092814       9.91883233      12.75278442       0.00000000      -0.00000000      -0.00000000
Fe       2.83395209      11.33580838      -0.00000000       0.00000000      -0.00000000       0.00000000
Fe       4.25092814      12.75278442       1.41697605      -0.00000000       0.00000000       0.00000000
Fe       2.83395209      11.33580838       2.83395209      -0.00000000       0.00000000       0.00000000
Fe       4.25092814      12.75278442       4.25092814       0.00000000      -0.00000000      -0.00000000
Fe       2.83395209      11.33580838       5.66790419       0.00000000      -0.00000000       0.00000000
Fe       4.25092814      12.75278442       7.08488024      -0.00000000      -0.00000000      -0.00000000
Fe       2.83395209      11.33580838       8.50185628       0.00000000      -0.00000000      -0.00000000
Fe       4.25092814      12.75278442       9.91883233      -0.00000000       0.00000000       0.00000000
Fe       2.83395209      11.33580838      11.33580838      -0.00000000       0.00000000       0.00000000
Fe       4.25092814      12.75278442      12.75278442      -0.00000000      -0.00000000      -0.00000000
Fe       5.66790419       0.00000000      -0.00000000       0.00000000       0.00000000       0.00000000
Fe       7.08488024       1.41697605       1.41697605       0.00000000      -0.00000000      -0.00000000
Fe       5.66790419       0.00000000       2.83395209      -0.00000000      -0.00000000       0.00000000
Fe       7.08488024       1.41697605       4.25092814       0.00000000      -0.00000000       0.00000000
Fe       5.66790419       0.00000000       5.66790419      -0.00000000       0.00000000      -0.00000000
Fe       7.08488024       1.41697605       7.08488024       0.00000000       0.00000000      -0.00000000
Fe       5.66790419       0.00000000       8.50185628      -0.00000000       0.00000000       0.00000000
Fe       7.08488024       1.41697605       9.91883233       0.00000000      -0.00000000      -0.00000000
Fe       5.66790419       0.00000000      11.33580838      -0.00000000       0.00000000       0.00000000
Fe       7.08488024       1.41697605      12.75278442      -0.00000000      -0.00000000      -0.00000000
Fe       5.66790419       2.83395209      -0.00000000       0.00000000       0.00000000       0.00000000
Fe       7.08488024       4.25092814       1.41697605       0.00000000       0.00000000      -0.00000000
Fe       5.66790419       2.83395209       2.83395209      -0.00000000       0.00000000       0.00000000
Fe       7.08488024       4.25092814       4.25092814       0.00000000       0.00000000      -0.00000000
Fe       5.66790419       2.83395209       5.66790419      -0.00000000       0.00000000       0.00000000
Fe       7.08488024       4.25092814       7.08488024       0.00000000       0.00000000      -0.00000000
Fe       5.66790419       2.83395209       8.50185628      -0.00000000       0.00000000      -0.00000000
Fe       7.08488024       4.25092814       9.91883233      -0.00000000       0.00000000      -0.00000000
Fe       5.66790419       2.83395209      11.33580838      -0.00000000       0.00000000       0.00000000
Fe       7.08488024       4.25092814      12.75278442      -0.00000000       0.00000000       0.00000000
Fe       5.66790419       5.66790419      -0.00000000       0.00000000      -0.00000000      -0.00000000
Fe       7.08488024       7.08488024       1.41697605       0.00000000      -0.00000000      -0.00000000
Fe       5.66790419       5.66790419       2.83395209       0.00000000       0.00000000       0.00000000
Fe       7.08488024       7.08488024       4.25092814       0.00000000      -0.00000000      -0.00000000
Fe       5.66790419       5.66790419       5.66790419       0.00000000       0.00000000       0.00000000
Fe       7.08488024       7.08488024       7.08488024      -0.00000000       0.00000000      -0.00000000
Fe       5.66790419       5.66790419       8.50185628       0.00000000      -0.00000000      -0.00000000
Fe       7.08488024       7.08488024       9.91883233       0.00000000       0.00000000       0.00000000
Fe       5.66790419       5.66790419      11.33580838      -0.00000000      -0.00000000       0.00000000
Fe       7.08488024       7.08488024      12.75278442       0.00000000      -0.00000000       0.00000000
Fe       5.66790419       8.50185628      -0.00000000      -0.00000000       0.00000000       0.00000000
Fe       7.08488024       9.91883233       1.41697605       0.00000000      -0.00000000      -0.00000000
Fe       5.66790419       8.50185628       2.83395209      -0.00000000       0.00000000      -0.00000000
Fe       7.08488024       9.91883233       4.25092814      -0.00000000      -0.00000000       0.00000000
Fe       5.66790419       8.50185628       5.66790419      -0.00000000      -0.00000000       0.00000000
Fe       7.08488024       9.91883233       7.08488024       0.00000000      -0.00000000      -0.00000000
Fe       5.66790419       8.50185628       8.50185628      -0.00000000       0.00000000      -0.00000000
Fe       7.08488024       9.91883233       9.91883233      -0.00000000      -0.00000000      -0.00000000
Fe       5.66790419       8.50185628      11.33580838       0.00000000       0.00000000       0.00000000
Fe       7.08488024       9.91883233      12.75278442       0.00000000      -0.00000000       0.00000000
Fe       5.66790419      11.33580838      -0.00000000       0.00000000      -0.00000000       0.00000000
Fe       7.08488024      12.75278442       1.41697605       0.00000000      -0.00000000      -0.00000000
Fe       5.66790419      11.33580838       2.83395209      -0.00000000      -0.00000000      -0.00000000
Fe       7.08488024      12.75278442       4.25092814       0.00000000       0.00000000      -0.00000000
Fe       5.66790419      11.33580838       5.66790419      -0.00000000      -0.00000000       0.00000000
Fe       7.08488024      12.75278442       7.08488024      -0.00000000      -0.00000000       0.00000000
Fe       5.66790419      11.33580838       8.50185628      -0.00000000      -0.00000000      -0.00000000
Fe       7.08488024      12.75278442       9.91883233       0.00000000       0.00000000      -0.00000000
Fe       5.66790419      11.33580838      11.33580838      -0.00000000      -0.00000000       0.00000000
Fe       7.08488024      12.75278442      12.75278442      -0.00000000      -0.00000000       0.00000000
Fe       8.50185628       0.00000000      -0.00000000       0.00000000      -0.00000000       0.00000000
Fe       9.91883233       1.41697605       1.41697605       0.00000000       0.00000000      -0.00000000
Fe       8.50185628       0.00000000       2.83395209      -0.00000000       0.00000000      -0.00000000
Fe       9.91883233       1.41697605       4.25092814      -0.00000000      -0.00000000       0.00000000
Fe       8.50185628       0.00000000       5.66790419       0.00000000       0.00000000      -0.00000000
Fe       9.91883233       1.41697605       7.08488024       0.00000000       0.00000000       0.00000000
Fe       8.50185628       0.00000000       8.50185628       0.00000000       0.00000000      -0.00000000
Fe       9.91883233       1.41697605       9.91883233      -0.00000000       0.00000000      -0.00000000
Fe       8.50185628       0.00000000      11.33580838       0.00000000       0.00000000       0.00000000
Fe       9.91883233       1.41697605      12.75278442       0.00000000      -0.00000000      -0.00000000
Fe       8.50185628       2.83395209      -0.00000000      -0.00000000       0.00000000       0.00000000
Fe       9.91883233       4.25092814       1.41697605      -0.00000000       0.00000000       0.00000000
Fe       8.50185628       2.83395209       2.83395209       0.00000000       0.00000000      -0.00000000
Fe       9.91883233       4.25092814       4.25092814       0.00000000       0.00000000      -0.00000000
Fe       8.50185628       2.83395209       5.66790419      -0.00000000      -0.00000000       0.00000000
Fe       9.91883233       4.25092814       7.08488024       0.00000000       0.00000000       0.00000000
Fe       8.50185628       2.83395209       8.50185628      -0.00000000       0.00000000      -0.00000000
Fe       9.91883233       4.25092814       9.91883233       0.00000000       0.00000000      -0.00000000
Fe       8.50185628       2.83395209      11.33580838       0.00000000      -0.00000000       0.00000000
Fe       9.91883233       4.25092814      12.75278442       0.00000000       0.00000000      -0.00000000
Fe       8.50185628       5.66790419      -0.00000000      -0.00000000       0.00000000       0.00000000
Fe       9.91883233       7.08488024       1.41697605      -0.00000000      -0.00000000       0.00000000
Fe       8.50185628       5.66790419       2.83395209      -0.00000000      -0.00000000       0.00000000
Fe       9.91883233       7.08488024       4.25092814      -0.00000000      -0.00000000       0.00000000
Fe       8.50185628       5.66790419       5.66790419      -0.00000000       0.00000000      -0.00000000
Fe       9.91883233       7.08488024       7.08488024       0.00000000       0.00000000      -0.00000000
Fe       8.50185628       5.66790419       8.50185628      -0.00000000      -0.00000000      -0.00000000
Fe       9.91883233       7.08488024       9.91883233      -0.00000000      -0.00000000       0.00000000
Fe       8.50185628       5.66790419      11.33580838      -0.00000000       0.00000000       0.00000000
Fe       9.91883233       7.08488024      12.75278442      -0.00000000       0.00000000      -0.00000000
Fe       8.50185628       8.50185628      -0.00000000      -0.00000000       0.00000000       0.00000000
Fe       9.91883233       9.91883233       1.41697605      -0.00000000      -0.00000000      -0.00000000
Fe       8.50185628       8.50185628       2.83395209      -0.00000000      -0.00000000      -0.00000000
Fe       9.91883233       9.91883233       4.25092814      -0.00000000      -0.00000000       0.00000000
Fe       8.50185628       8.50185628       5.66790419      -0.00000000       0.00000000       0.00000000
Fe       9.91883233       9.91883233       7.08488024      -0.00000000      -0.00000000       0.00000000
Fe       8.50185628       8.50185628       8.50185628      -0.00000000       0.00000000       0.00000000
Fe       9.91883233       9.91883233       9.91883233      -0.00000000       0.00000000      -0.00000000
Fe       8.50185628       8.50185628      11.33580838      -0.00000000      -0.00000000       0.00000000
Fe       9.91883233       9.91883233      12.75278442       0.00000000      -0.00000000      -0.00000000
Fe       8.50185628      11.33580838      -0.00000000      -0.00000000       0.00000000       0.00000000
Fe       9.91883233      12.75278442       1.41697605       0.00000000      -0.00000000      -0.00000000
Fe       8.50185628      11.33580838       2.83395209       0.00000000       0.00000000      -0.00000000
Fe       9.91883233      12.75278442       4.25092814      -0.00000000      -0.00000000       0.00000000
Fe       8.50185628      11.33580838       5.66790419      -0.00000000      -0.00000000       0.00000000
Fe       9.91883233      12.75278442       7.08488024       0.00000000       0.00000000      -0.00000000
Fe       8.50185628      11.33580838       8.50185628       0.00000000      -0.00000000      -0.00000000
Fe       9.91883233      12.75278442       9.91883233      -0.00000000       0.00000000       0.00000000
Fe       8.50185628      11.33580838      11.33580838       0.00000000       0.00000000       0.00000000
Fe       9.91883233      12.75278442      12.75278442      -0.00000000      -0.00000000      -0.00000000
Fe      11.33580838       0.00000000      -0.00000000       0.00000000       0.00000000       0.00000000
Fe      12.75278442       1.41697605       1.41697605       0.00000000       0.00000000      -0.00000000
Fe      11.33580838       0.00000000       2.83395209       0.00000000       0.00000000      -0.00000000
Fe      12.75278442       1.41697605       4.25092814      -0.00000000       0.00000000       0.00000000
Fe      11.33580838       0.00000000       5.66790419       0.00000000       0.00000000       0.00000000
Fe      12.75278442       1.41697605       7.08488024      -0.00000000       0.00000000      -0.00000000
Fe      11.33580838       0.00000000       8.50185628      -0.00000000      -0.00000000      -0.00000000
Fe      12.75278442       1.41697605       9.91883233      -0.00000000       0.00000000       0.00000000
Fe      11.33580838       0.00000000      11.33580838       0.00000000       0.00000000       0.00000000
Fe      12.75278442       1.41697605      12.75278442      -0.00000000      -0.00000000       0.00000000
Fe      11.33580838       2.83395209      -0.00000000       0.00000000      -0.00000000       0.00000000
Fe      12.75278442       4.25092814       1.41697605       0.00000000      -0.00000000      -0.00000000
Fe      11.33580838       2.83395209       2.83395209      -0.00000000       0.00000000       0.00000000
Fe      12.75278442       4.25092814       4.25092814       0.00000000      -0.00000000      -0.00000000
Fe      11.33580838       2.83395209       5.66790419      -0.00000000       0.00000000      -0.00000000
Fe      12.75278442       4.25092814       7.08488024       0.00000000      -0.00000000      -0.00000000
Fe      11.33580838       2.83395209       8.50185628      -0.00000000       0.00000000      -0.00000000
Fe      12.75278442       4.25092814       9.91883233      -0.00000000       0.00000000       0.00000000
Fe      11.33580838       2.83395209      11.33580838       0.00000000      -0.00000000       0.00000000
Fe      12.75278442       4.25092814      12.75278442       0.00000000       0.00000000      -0.00000000
Fe      11.33580838       5.66790419      -0.00000000      -0.00000000      -0.00000000       0.00000000
Fe      12.75278442       7.08488024       1.41697605       0.00000000      -0.00000000      -0.00000000
Fe      11.33580838       5.66790419       2.83395209       0.00000000      -0.00000000       0.00000000
Fe      12.75278442       7.08488024       4.25092814      -0.00000000      -0.00000000       0.00000000
Fe      11.33580838       5.66790419       5.66790419      -0.00000000       0.00000000      -0.00000000
Fe      12.75278442       7.08488024       7.08488024      -0.00000000      -0.00000000      -0.00000000
Fe      11.33580838       5.66790419       8.50185628      -0.00000000      -0.00000000      -0.00000000
Fe      12.75278442       7.08488024       9.91883233      -0.00000000       0.00000000       0.00000000
Fe      11.33580838       5.66790419      11.33580838       0.00000000      -0.00000000       0.00000000
Fe      12.75278442       7.08488024      12.75278442       0.00000000      -0.00000000      -0.00000000
Fe      11.33580838       8.50185628      -0.00000000      -0.00000000      -0.00000000       0.00000000
Fe      12.75278442       9.91883233       1.41697605      -0.00000000      -0.00000000      -0.00000000
Fe      11.33580838       8.50185628       2.83395209       0.00000000       0.00000000       0.00000000
Fe      12.75278442       9.91883233       4.25092814      -0.00000000      -0.00000000      -0.00000000
Fe      11.33580838       8.50185628       5.66790419       0.00000000      -0.00000000      -0.00000000
Fe      12.75278442       9.91883233       7.08488024       0.00000000      -0.00000000       0.00000000
Fe      11.33580838       8.50185628       8.50185628       0.00000000       0.00000000       0.00000000
Fe      12.75278442       9.91883233       9.91883233      -0.00000000      -0.00000000      -0.00000000
Fe      11.33580838       8.50185628      11.33580838       0.00000000       0.00000000       0.00000000
Fe      12.75278442       9.91883233      12.75278442      -0.00000000      -0.00000000      -0.00000000
Fe      11.33580838      11.33580838      -0.00000000      -0.00000000       0.00000000       0.00000000
Fe      12.75278442      12.75278442       1.41697605      -0.00000000       0.00000000      -0.00000000
Fe      11.33580838      11.33580838       2.83395209       0.00000000      -0.00000000      -0.00000000
Fe      12.75278442      12.75278442       4.25092814      -0.00000000      -0.00000000      -0.00000000
Fe      11.33580838      11.33580838       5.66790419      -0.00000000      -0.00000000       0.00000000
Fe      12.75278442      12.75278442       7.08488024       0.00000000       0.00000000      -0.00000000
Fe      11.33580838      11.33580838       8.50185628       0.00000000      -0.00000000       0.00000000
Fe      12.75278442      12.75278442       9.91883233      -0.00000000       0.00000000       0.00000000
Fe      11.33580838      11.33580838      11.33580838       0.00000000       0.00000000       0.00000000
Fe      12.75278442      12.75278442      12.75278442      -0.00000000      -0.00000000       0.00000000
