(written by ASE)

8193 atoms
1 atom types

0.0      45.343209283534776  xlo xhi
0.0      45.343209283534776  ylo yhi
0.0      45.343209283534776  zlo zhi

Atoms # atomic

     1   1 -2.2949999999999999e-05 -2.2949999999999999e-05 -2.2949999999999999e-05
     2   1      1.4166357999999999      1.4166357999999999      1.4166357999999999
     3   1             -0.00026508             -0.00026508      2.8338086699999998
     4   1      1.4163828199999999      1.4163828199999999      4.2504762300000003
     5   1              -0.0004704              -0.0004704              5.66766565
     6   1              1.41617379              1.41617379              7.08436501
     7   1 -0.00060802999999999996 -0.00060802999999999996      8.5015642499999995
     8   1      1.4160416300000001      1.4160416300000001      9.9183173300000007
     9   1 -0.00065647000000000004 -0.00065647000000000004      11.335511759999999
    10   1              1.41600901              1.41600901      12.752334980000001
    11   1             -0.00060713             -0.00060713      14.169505450000001
    12   1      1.4160835899999999      1.4160835899999999             15.58640409
    13   1 -0.00046621999999999999 -0.00046621999999999999      17.003534519999999
    14   1              1.41625486              1.41625486      18.420498519999999
    15   1             -0.00025473             -0.00025473      19.837584400000001
    16   1      1.4164950599999999      1.4164950599999999      21.254589259999999
    17   1 -5.5999999999999997e-06 -5.5999999999999997e-06              22.6716409
    18   1              1.41676435              1.41676435             24.08865385
    19   1  0.00024167000000000001  0.00024167000000000001      25.505691989999999
    20   1              1.41701918              1.41701918             26.92268056
    21   1              0.00044819              0.00044819      28.339726819999999
    22   1      1.4172205499999999      1.4172205499999999             29.75666605
    23   1  0.00058233999999999998  0.00058233999999999998             31.17373444
    24   1              1.41733994              1.41733994      32.590610470000001
    25   1  0.00062467999999999996  0.00062467999999999996      34.007704519999997
    26   1      1.4173621199999999      1.4173621199999999      35.424514629999997
    27   1              0.00057016              0.00057016      36.841630279999997
    28   1              1.41728561              1.41728561      38.258380690000003
    29   1  0.00042805000000000002  0.00042805000000000002      39.675511890000003
    30   1      1.4171220600000001      1.4171220600000001      41.092214800000001
    31   1  0.00022005000000000001  0.00022005000000000001             42.50935827
    32   1      1.4168947000000001      1.4168947000000001      43.926029640000003
    33   1             -0.00026508      2.8338086699999998             -0.00026508
    34   1      1.4163828199999999      4.2504762300000003      1.4163828199999999
    35   1 -0.00052983000000000001      2.8335643199999998      2.8335643199999998
    36   1              1.41607767      4.2502068800000004      4.2502068800000004
    37   1 -0.00077169000000000001      2.8333479000000001      5.6674304500000003
    38   1               1.4158081      4.2499723100000004              7.08409435
    39   1 -0.00095317999999999998              2.83319315      8.5013526099999996
    40   1      1.4156181299999999      4.2498111200000004      9.9180673699999993
    41   1  -0.0010450800000000001              2.83312571              11.3353386
    42   1      1.4155410900000001      4.2497529399999996      12.752129050000001
    43   1             -0.00103147      2.8331584300000001             14.16938152
    44   1      1.4155927500000001      4.2498122499999997             15.58625917
    45   1 -0.00091350000000000003              2.83328779      17.003460969999999
    46   1              1.41576602      4.2499820799999997             18.42041712
    47   1             -0.00070982      2.8334932799999999             19.83754974
    48   1              1.41603101      4.2502328199999999             21.25455625
    49   1 -0.00045333999999999999      2.8337409099999999             22.67162312
    50   1               1.4163421      4.2505193200000004             24.08864217
    51   1             -0.00018509      2.8339901599999999      25.505665230000002
    52   1              1.41664831      4.2507926600000001      26.922661590000001
    53   1  5.3329999999999999e-05      2.8342020699999999      28.339669390000001
    54   1      1.4169031400000001      4.2510110499999998      29.756618320000001
    55   1  0.00022646999999999999      2.8343456800000002      31.173634289999999
    56   1      1.4170713100000001      4.2511456699999997              32.5905232
    57   1  0.00030990999999999999      2.8344017500000001      34.007560130000002
    58   1      1.4171319499999999              4.25118185      35.424386300000002
    59   1  0.00029280000000000002      2.8343640099999998      36.841447809999998
    60   1              1.41707911      4.2511180399999997      38.258214819999999
    61   1  0.00017830999999999999      2.8342390200000001      39.675300620000002
    62   1      1.4169206999999999      4.2509642699999999      41.092015859999997
    63   1                -1.7e-05               2.8340448             42.50912735
    64   1      1.4166776999999999      4.2507406899999998      43.925801450000002
    65   1              -0.0004704              5.66766565              -0.0004704
    66   1              1.41617379              7.08436501              1.41617379
    67   1 -0.00077169000000000001      5.6674304500000003      2.8333479000000001
    68   1               1.4158081              7.08409435      4.2499723100000004
    69   1  -0.0010587000000000001      5.6672135299999997      5.6672135299999997
    70   1      1.4154764399999999      7.0838475399999998      7.0838475399999998
    71   1             -0.00128473      5.6670501199999999      8.5011505300000003
    72   1              1.41523687      7.0836673599999997      9.9178305699999996
    73   1             -0.00141193      5.6669696399999996      11.335167630000001
    74   1      1.4151329399999999              7.08359015             12.75192624
    75   1  -0.0014195099999999999      5.6669884499999998      14.169253060000001
    76   1              1.41518185      7.0836351200000003      15.586107009999999
    77   1             -0.00130736      5.6671055299999997      17.003377329999999
    78   1      1.4153730200000001      7.0837986300000004             18.42032026
    79   1             -0.00109533      5.6673009499999996             19.83750242
    80   1              1.41567135      7.0840502900000004      21.254504860000001
    81   1 -0.00081824000000000003      5.6675399100000003               22.671595
    82   1              1.41602659              7.08434075      24.088615740000002
    83   1 -0.00051906000000000001      5.6677815000000002      25.505636150000001
    84   1      1.4163837500000001      7.0846176999999999      26.922637250000001
    85   1 -0.00024250000000000001               5.6679879      28.339621900000001
    86   1      1.4166904600000001      7.0848388900000003      29.756577849999999
    87   1                -2.9e-05      5.6681304700000004      31.173557500000001
    88   1              1.41690355      7.0849771800000001      32.590456660000001
    89   1  9.0840000000000004e-05              5.66819191              34.0074507
    90   1      1.4169950200000001      7.0850201799999999             35.42429121
    91   1              0.00010048      5.6681665499999996             36.84130794
    92   1      1.4169546500000001      7.0849678300000001      38.258091980000003
    93   1 -1.2500000000000001e-06               5.6680595      39.675134640000003
    94   1      1.4167883800000001      7.0848291799999998             41.09186553
    95   1 -0.00020066999999999999      5.6678850799999996      42.508939529999999
    96   1              1.41651656      7.0846204400000001      43.925622189999999
    97   1 -0.00060802999999999996      8.5015642499999995 -0.00060802999999999996
    98   1      1.4160416300000001      9.9183173199999999      1.4160416300000001
    99   1 -0.00095317999999999998      8.5013526099999996              2.83319315
   100   1      1.4156181299999999      9.9180673699999993      4.2498111200000004
   101   1             -0.00128473      8.5011505300000003      5.6670501199999999
   102   1              1.41523687      9.9178305699999996      7.0836673599999997
   103   1  -0.0015460199999999999      8.5009916200000006      8.5009916200000006
   104   1              1.41496888      9.9176486300000004      9.9176486300000004
   105   1  -0.0016906600000000001      8.5009075900000006      11.335027800000001
   106   1      1.4148663100000001      9.9175623900000005             12.75176211
   107   1             -0.00169691      8.5009176400000008             14.16914141
   108   1              1.41494002      9.9175955600000005             15.58597249
   109   1  -0.0015699799999999999      8.5010226499999995      17.003295080000001
   110   1              1.41516566      9.9177472400000006      18.420218590000001
   111   1             -0.00133578      8.5012035899999994      19.837444399999999
   112   1      1.4154984500000001      9.9179878099999996             21.25443302
   113   1             -0.00103269      8.5014249399999997      22.671552129999998
   114   1      1.4158858999999999      9.9182648499999999      24.088565509999999
   115   1 -0.00070405999999999995              8.50164571      25.505598500000001
   116   1      1.4162759199999999      9.9185242700000007      26.922598099999998
   117   1              -0.0003949      8.5018309999999992      28.339580810000001
   118   1      1.4166168699999999      9.9187266899999997      29.756540059999999
   119   1 -0.00014922000000000001      8.5019573000000008             31.17350647
   120   1              1.41686014              9.91885072      32.590413480000002
   121   1 -3.8700000000000002e-06      8.5020123400000003      34.007385710000001
   122   1              1.41696971      9.9188894300000001             35.42423883
   123   1  1.8790000000000001e-05      8.5019931999999994      36.841226740000003
   124   1              1.41692978      9.9188454099999994      38.258027730000002
   125   1 -8.5569999999999996e-05      8.5019042099999993      39.675035880000003
   126   1              1.41674488      9.9187268500000005      41.091785170000001
   127   1 -0.00030412000000000001      8.5017557799999999      42.508821750000003
   128   1              1.41643618      9.9185453900000002             43.92551907
   129   1 -0.00065647000000000004      11.335511759999999 -0.00065647000000000004
   130   1              1.41600901      12.752334980000001              1.41600901
   131   1  -0.0010450800000000001              11.3353386              2.83312571
   132   1      1.4155410900000001      12.752129050000001      4.2497529399999996
   133   1             -0.00141193      11.335167630000001      5.6669696399999996
   134   1      1.4151329399999999             12.75192624              7.08359015
   135   1  -0.0016906600000000001      11.335027800000001      8.5009075900000006
   136   1      1.4148663100000001             12.75176211      9.9175623900000005
   137   1  -0.0018310900000000001      11.334948450000001      11.334948450000001
   138   1      1.4147917400000001              12.7516742              12.7516742
   139   1             -0.00181397      11.334951650000001              14.1690714
   140   1              1.41491093             12.75169223      15.585887189999999
   141   1             -0.00165479              11.3350417      17.003233649999999
   142   1              1.41518123      12.751821639999999             18.42013614
   143   1             -0.00138948      11.335202369999999      19.837389099999999
   144   1              1.41554522      12.752037250000001             21.25435542
   145   1             -0.00106105             11.33539843      22.671502149999998
   146   1      1.4159483900000001      12.752286099999999      24.088497690000001
   147   1 -0.00071179999999999995             11.33558803      25.505555619999999
   148   1      1.4163459300000001      12.752511630000001      26.922545549999999
   149   1             -0.00038339             11.33573885      28.339547840000002
   150   1      1.4166947000000001             12.75267756      29.756505690000001
   151   1             -0.00011996      11.335834589999999      31.173484250000001
   152   1      1.4169465400000001             12.75277131      32.590396089999999
   153   1  3.6510000000000001e-05             11.33587153      34.007371190000001
   154   1      1.4170582199999999             12.75279452      35.424234439999999
   155   1  5.7729999999999998e-05      11.335851999999999             36.84121399
   156   1      1.4170072499999999      12.752754639999999      38.258030320000003
   157   1 -6.3089999999999994e-05             11.33578071      39.675017869999998
   158   1              1.41679661             12.75265973      41.091786409999997
   159   1 -0.00031201999999999998             11.33566414      42.508791359999996
   160   1      1.4164496900000001             12.75251701      43.925508379999997
   161   1             -0.00060713      14.169505450000001             -0.00060713
   162   1      1.4160835899999999             15.58640409      1.4160835899999999
   163   1             -0.00103147             14.16938152      2.8331584300000001
   164   1      1.4155927500000001             15.58625917      4.2498122499999997
   165   1  -0.0014195099999999999      14.169253060000001      5.6669884499999998
   166   1              1.41518185      15.586107009999999      7.0836351200000003
   167   1             -0.00169691             14.16914141      8.5009176400000008
   168   1              1.41494002             15.58597249      9.9175955600000005
   169   1             -0.00181397              14.1690714      11.334951650000001
   170   1              1.41491093      15.585887189999999             12.75169223
   171   1  -0.0017592300000000001      14.169065720000001      14.169065720000001
   172   1              1.41508251             15.58588344             15.58588344
   173   1             -0.00155967      14.169135239999999      17.003216210000001
   174   1      1.4153950099999999             15.58597709      18.420105830000001
   175   1  -0.0012624299999999999             14.16926915      19.837359530000001
   176   1      1.4157805699999999      15.586152719999999      21.254303180000001
   177   1 -0.00091423999999999997             14.16943508      22.671466299999999
   178   1              1.41618504             15.58636256             24.08843851
   179   1 -0.00055436999999999999             14.16959048      25.505524749999999
   180   1      1.4165719400000001      15.586548860000001      26.922498430000001
   181   1 -0.00021926000000000001      14.169703090000001      28.339534669999999
   182   1              1.41690753             15.58667468             29.75648554
   183   1  4.8550000000000001e-05      14.169762309999999      31.173497279999999
   184   1      1.4171477100000001             15.58673304      32.590409530000002
   185   1               0.0002031      14.169773940000001      34.007410870000001
   186   1      1.4172459900000001             15.58673529      35.424279830000003
   187   1  0.00021073000000000001      14.169748390000001      36.841272910000001
   188   1              1.41717468             15.58669615      38.258100200000001
   189   1  6.3070000000000004e-05             14.16969304      39.675084439999999
   190   1      1.4169356900000001             15.58662565      41.091869610000003
   191   1 -0.00022251000000000001      14.169611290000001      42.508853760000001
   192   1      1.4165559700000001             15.58652781      43.925592549999998
   193   1 -0.00046621999999999999      17.003534519999999 -0.00046621999999999999
   194   1              1.41625486      18.420498519999999              1.41625486
   195   1 -0.00091350000000000003      17.003460969999999              2.83328779
   196   1              1.41576602             18.42041712      4.2499820799999997
   197   1             -0.00130736      17.003377329999999      5.6671055299999997
   198   1      1.4153730200000001             18.42032026      7.0837986300000004
   199   1  -0.0015699799999999999      17.003295080000001      8.5010226499999995
   200   1              1.41516566      18.420218590000001      9.9177472400000006
   201   1             -0.00165479      17.003233649999999              11.3350417
   202   1              1.41518123             18.42013614      12.751821639999999
   203   1             -0.00155967      17.003216210000001      14.169135239999999
   204   1      1.4153950099999999      18.420105830000001             15.58597709
   205   1             -0.00132299             17.00326029             17.00326029
   206   1              1.41573682      18.420154839999999      18.420154839999999
   207   1  -0.0010005299999999999      17.003364080000001      19.837379309999999
   208   1      1.4161319299999999      18.420281230000001      21.254310879999998
   209   1 -0.00064013999999999998      17.003499949999998      22.671471090000001
   210   1      1.4165292300000001             18.42044726              24.0884231
   211   1 -0.00027689000000000001             17.00362556      25.505530660000002
   212   1      1.4168982999999999      18.420597319999999      26.922485389999999
   213   1  5.7720000000000003e-05             17.00370689      28.339559529999999
   214   1      1.4172116299999999             18.42069167      29.756497759999998
   215   1  0.00032216999999999999      17.003734959999999      31.173554889999998
   216   1              1.41742846      18.420723169999999      32.590460890000003
   217   1  0.00046712000000000001      17.003722580000002             34.00750584
   218   1                1.417503             18.42070867      35.424373330000002
   219   1  0.00045443000000000002      17.003688610000001      36.841399199999998
   220   1              1.41740635             18.42067003      38.258229630000002
   221   1  0.00027506999999999998      17.003645370000001      39.675228509999997
   222   1      1.4171412000000001      18.420621050000001      41.092023570000002
   223   1 -4.7710000000000002e-05             17.00359512      42.509001300000001
   224   1              1.41673932      18.420564970000001      43.925759450000001
   225   1             -0.00025473      19.837584400000001             -0.00025473
   226   1      1.4164950599999999      21.254589259999999      1.4164950599999999
   227   1             -0.00070982             19.83754974      2.8334932799999999
   228   1              1.41603101             21.25455625      4.2502328199999999
   229   1             -0.00109533             19.83750242      5.6673009499999996
   230   1              1.41567135      21.254504860000001      7.0840502900000004
   231   1             -0.00133578      19.837444399999999      8.5012035899999994
   232   1      1.4154984500000001             21.25443302      9.9179878099999996
   233   1             -0.00138948      19.837389099999999      11.335202369999999
   234   1              1.41554522             21.25435542      12.752037250000001
   235   1  -0.0012624299999999999      19.837359530000001             14.16926915
   236   1      1.4157805699999999      21.254303180000001      15.586152719999999
   237   1  -0.0010005299999999999      19.837379309999999      17.003364080000001
   238   1      1.4161319299999999      21.254310879999998      18.420281230000001
   239   1 -0.00066337999999999998      19.837455519999999      19.837455519999999
   240   1      1.4165247000000001             21.25439029             21.25439029
   241   1 -0.00029760000000000002      19.837567119999999      22.671530099999998
   242   1              1.41691104      21.254515170000001      24.088470619999999
   243   1  6.5489999999999998e-05      19.837673049999999      25.505588759999998
   244   1              1.41726263      21.254636380000001      26.922525369999999
   245   1  0.00039703999999999998      19.837736970000002      28.339634719999999
   246   1              1.41755341      21.254712520000002             29.75655467
   247   1  0.00065510000000000004      19.837747910000001      31.173661719999998
   248   1      1.4177436000000001      21.254732520000001      32.590552600000002
   249   1  0.00078728999999999995      19.837720699999998      34.007651150000001
   250   1      1.4177901900000001      21.254712260000002      35.424507120000001
   251   1              0.00075243             19.83767971      36.841579490000001
   252   1      1.4176675599999999             21.25467635      38.258402439999998
   253   1  0.00054219000000000001      19.837642280000001      39.675431690000003
   254   1      1.4173821499999999      21.254642090000001      41.092226500000002
   255   1              0.00018715             19.83761239             42.50921349
   256   1      1.4169713799999999             21.25461456      43.925983770000002
   257   1 -5.5999999999999997e-06              22.6716409 -5.5999999999999997e-06
   258   1              1.41676435             24.08865385              1.41676435
   259   1 -0.00045333999999999999             22.67162312      2.8337409099999999
   260   1               1.4163421             24.08864217      4.2505193200000004
   261   1 -0.00081824000000000003               22.671595      5.6675399100000003
   262   1              1.41602659      24.088615740000002              7.08434075
   263   1             -0.00103269      22.671552129999998      8.5014249399999997
   264   1      1.4158858999999999      24.088565509999999      9.9182648499999999
   265   1             -0.00106105      22.671502149999998             11.33539843
   266   1      1.4159483900000001      24.088497690000001      12.752286099999999
   267   1 -0.00091423999999999997      22.671466299999999             14.16943508
   268   1              1.41618504             24.08843851             15.58636256
   269   1 -0.00064013999999999998      22.671471090000001      17.003499949999998
   270   1      1.4165292300000001              24.0884231             18.42044726
   271   1 -0.00029760000000000002      22.671530099999998      19.837567119999999
   272   1              1.41691104      24.088470619999999      21.254515170000001
   273   1  6.8759999999999999e-05             22.67162867             22.67162867
   274   1              1.41728378             24.08856651             24.08856651
   275   1  0.00042963000000000002      22.671728359999999      25.505689019999998
   276   1      1.4176182900000001             24.08866926      26.922610450000001
   277   1  0.00075602000000000004      22.671790860000002      28.339751570000001
   278   1      1.4178865700000001      24.088739409999999             29.75664982
   279   1   0.0010043400000000001      22.671801110000001      31.173806859999999
   280   1               1.4180491             24.08876145      32.590674460000002
   281   1              0.00112013      22.671771150000001              34.0078301
   282   1      1.4180666200000001      24.088745589999998      35.424664200000002
   283   1   0.0010621000000000001      22.671725840000001      36.841790140000001
   284   1      1.4179201299999999      24.088713500000001      38.258594469999998
   285   1  0.00082503000000000003      22.671685610000001      39.675665189999997
   286   1              1.41762221      24.088683629999998      41.092448400000002
   287   1              0.00044663      22.671658499999999      42.509458789999996
   288   1      1.4172157299999999      24.088664399999999             43.92623072
   289   1  0.00024167000000000001      25.505691989999999  0.00024167000000000001
   290   1              1.41701918             26.92268056              1.41701918
   291   1             -0.00018509      25.505665230000002      2.8339901599999999
   292   1              1.41664831      26.922661590000001      4.2507926600000001
   293   1 -0.00051906000000000001      25.505636150000001      5.6677815000000002
   294   1      1.4163837500000001      26.922637250000001      7.0846176999999999
   295   1 -0.00070405999999999995      25.505598500000001              8.50164571
   296   1      1.4162759199999999      26.922598099999998      9.9185242700000007
   297   1 -0.00071179999999999995      25.505555619999999             11.33558803
   298   1      1.4163459300000001      26.922545549999999      12.752511630000001
   299   1 -0.00055436999999999999      25.505524749999999             14.16959048
   300   1      1.4165719400000001      26.922498430000001      15.586548860000001
   301   1 -0.00027689000000000001      25.505530660000002             17.00362556
   302   1      1.4168982999999999      26.922485389999999      18.420597319999999
   303   1  6.5489999999999998e-05      25.505588759999998      19.837673049999999
   304   1              1.41726263      26.922525369999999      21.254636380000001
   305   1  0.00042963000000000002      25.505689019999998      22.671728359999999
   306   1      1.4176182900000001      26.922610450000001             24.08866926
   307   1  0.00078554000000000004      25.505796520000001      25.505796520000001
   308   1      1.4179326800000001      26.922708490000002      26.922708490000002
   309   1   0.0011014600000000001      25.505871840000001             28.33987836
   310   1      1.4181745299999999      26.922782730000002             29.75675704
   311   1              0.00133223      25.505894810000001      31.173960189999999
   312   1              1.41830608      26.922814540000001      32.590802400000001
   313   1              0.00142428      25.505871320000001             34.00801208
   314   1              1.41829417      26.922806770000001      35.424818520000002
   315   1               0.0013403             25.50582236      36.841997730000003
   316   1      1.4181274500000001      26.922775059999999      38.258775610000001
   317   1   0.0010811200000000001      25.505769239999999      39.675892419999997
   318   1              1.41782513      26.922736820000001      41.092654899999999
   319   1  0.00069037000000000005      25.505724919999999      42.509698790000002
   320   1      1.4174341800000001      26.922704110000002      43.926461750000001
   321   1              0.00044819      28.339726819999999              0.00044819
   322   1      1.4172205499999999             29.75666605      1.4172205499999999
   323   1  5.3329999999999999e-05      28.339669390000001      2.8342020699999999
   324   1      1.4169031400000001      29.756618320000001      4.2510110499999998
   325   1 -0.00024250000000000001      28.339621900000001               5.6679879
   326   1      1.4166904600000001      29.756577849999999      7.0848388900000003
   327   1              -0.0003949      28.339580819999998      8.5018309999999992
   328   1      1.4166168699999999      29.756540059999999      9.9187266899999997
   329   1             -0.00038339      28.339547840000002             11.33573885
   330   1      1.4166947000000001      29.756505690000001             12.75267756
   331   1 -0.00021926000000000001      28.339534669999999      14.169703090000001
   332   1              1.41690753             29.75648554             15.58667468
   333   1  5.7720000000000003e-05      28.339559529999999             17.00370689
   334   1      1.4172116299999999      29.756497759999998             18.42069167
   335   1  0.00039703999999999998      28.339634719999999      19.837736970000002
   336   1              1.41755341             29.75655467      21.254712520000002
   337   1  0.00075602000000000004      28.339751570000001      22.671790860000002
   338   1      1.4178865700000001             29.75664982      24.088739409999999
   339   1   0.0011014600000000001             28.33987836      25.505871840000001
   340   1      1.4181745299999999             29.75675704      26.922782730000002
   341   1   0.0013977900000000001      28.339976029999999      28.339976029999999
   342   1              1.41838372      29.756843870000001      29.756843870000001
   343   1              0.00159983      28.340019080000001      31.174083400000001
   344   1              1.41848069      29.756887970000001      32.590906150000002
   345   1              0.00165916              28.3400055      34.008159210000002
   346   1              1.41844025      29.756885659999998             35.42494026
   347   1   0.0015466500000000001              28.3399505      36.842164580000002
   348   1      1.4182585400000001      29.756846719999999      38.258914920000002
   349   1   0.0012708000000000001      28.339874760000001      39.676075089999998
   350   1      1.4179599300000001      29.756787379999999      41.092812870000003
   351   1  0.00087973000000000001      28.339796410000002      42.509894709999998
   352   1      1.4175931900000001      29.756723579999999      43.926640999999996
   353   1  0.00058233999999999998             31.17373444  0.00058233999999999998
   354   1              1.41733994      32.590610470000001              1.41733994
   355   1  0.00022646999999999999      31.173634289999999      2.8343456800000002
   356   1      1.4170712999999999              32.5905232      4.2511456699999997
   357   1                -2.9e-05      31.173557500000001      5.6681304700000004
   358   1              1.41690355      32.590456660000001      7.0849771800000001
   359   1 -0.00014922000000000001             31.17350647      8.5019573000000008