250
Lattice="15.873957008784497 0.0 0.0 0.0 15.873957008784497 0.0 0.0 0.0 15.873957008784497" Properties=species:S:1:pos:R:3:forces:R:3 strain_type=Hydrostatic strain_value=-0.005 energy=-479974.95309359883 pbc="T T T"
W        0.00000000       0.00000000       0.00000000       0.00000000       0.00000000       0.00000000
W        1.58739570       1.58739570       1.58739570       0.00000000      -0.00000000      -0.00000000
W        0.00000000       0.00000000       3.17479140       0.00000000       0.00000000      -0.00000000
W        1.58739570       1.58739570       4.76218710       0.00000000      -0.00000000       0.00000000
W        0.00000000       0.00000000       6.34958280       0.00000000       0.00000000      -0.00000000
W        1.58739570       1.58739570       7.93697850      -0.00000000       0.00000000      -0.00000000
W        0.00000000       0.00000000       9.52437421      -0.00000000      -0.00000000       0.00000000
W        1.58739570       1.58739570      11.11176991      -0.00000000      -0.00000000       0.00000000
W        0.00000000       0.00000000      12.69916561       0.00000000       0.00000000      -0.00000000
W        1.58739570       1.58739570      14.28656131      -0.00000000      -0.00000000       0.00000000
W        0.00000000       3.17479140       0.00000000       0.00000000      -0.00000000       0.00000000
W        1.58739570       4.76218710       1.58739570      -0.00000000       0.00000000      -0.00000000
W        0.00000000       3.17479140       3.17479140       0.00000000      -0.00000000      -0.00000000
W        1.58739570       4.76218710       4.76218710       0.00000000       0.00000000       0.00000000
W        0.00000000       3.17479140       6.34958280       0.00000000      -0.00000000      -0.00000000
W        1.58739570       4.76218710       7.93697850       0.00000000       0.00000000      -0.00000000
W        0.00000000       3.17479140       9.52437421       0.00000000      -0.00000000       0.00000000
W        1.58739570       4.76218710      11.11176991      -0.00000000       0.00000000       0.00000000
W        0.00000000       3.17479140      12.69916561       0.00000000      -0.00000000      -0.00000000
W        1.58739570       4.76218710      14.28656131      -0.00000000       0.00000000      -0.00000000
W        0.00000000       6.34958280       0.00000000       0.00000000      -0.00000000       0.00000000
W        1.58739570       7.93697850       1.58739570       0.00000000      -0.00000000      -0.00000000
W        0.00000000       6.34958280       3.17479140       0.00000000      -0.00000000      -0.00000000
W        1.58739570       7.93697850       4.76218710       0.00000000      -0.00000000       0.00000000
W        0.00000000       6.34958280       6.34958280       0.00000000      -0.00000000      -0.00000000
W        1.58739570       7.93697850       7.93697850       0.00000000      -0.00000000      -0.00000000
W        0.00000000       6.34958280       9.52437421       0.00000000      -0.00000000       0.00000000
W        1.58739570       7.93697850      11.11176991      -0.00000000      -0.00000000       0.00000000
W        0.00000000       6.34958280      12.69916561       0.00000000      -0.00000000      -0.00000000
W        1.58739570       7.93697850      14.28656131       0.00000000      -0.00000000      -0.00000000
W        0.00000000       9.52437421       0.00000000       0.00000000       0.00000000       0.00000000
W        1.58739570      11.11176991       1.58739570      -0.00000000       0.00000000      -0.00000000
W        0.00000000       9.52437421       3.17479140       0.00000000       0.00000000      -0.00000000
W        1.58739570      11.11176991       4.76218710      -0.00000000       0.00000000       0.00000000
W        0.00000000       9.52437421       6.34958280       0.00000000       0.00000000      -0.00000000
W        1.58739570      11.11176991       7.93697850       0.00000000       0.00000000      -0.00000000
W        0.00000000       9.52437421       9.52437421       0.00000000       0.00000000       0.00000000
W        1.58739570      11.11176991      11.11176991       0.00000000       0.00000000       0.00000000
W        0.00000000       9.52437421      12.69916561       0.00000000       0.00000000      -0.00000000
W        1.58739570      11.11176991      14.28656131       0.00000000       0.00000000      -0.00000000
W        0.00000000      12.69916561       0.00000000       0.00000000      -0.00000000       0.00000000
W        1.58739570      14.28656131       1.58739570      -0.00000000      -0.00000000      -0.00000000
W        0.00000000      12.69916561       3.17479140       0.00000000      -0.00000000      -0.00000000
W        1.58739570      14.28656131       4.76218710      -0.00000000      -0.00000000       0.00000000
W        0.00000000      12.69916561       6.34958280       0.00000000      -0.00000000      -0.00000000
W        1.58739570      14.28656131       7.93697850       0.00000000      -0.00000000      -0.00000000
W        0.00000000      12.69916561       9.52437421       0.00000000      -0.00000000       0.00000000
W        1.58739570      14.28656131      11.11176991      -0.00000000      -0.00000000       0.00000000
W        0.00000000      12.69916561      12.69916561       0.00000000      -0.00000000      -0.00000000
W        1.58739570      14.28656131      14.28656131      -0.00000000      -0.00000000      -0.00000000
W        3.17479140       0.00000000       0.00000000      -0.00000000       0.00000000       0.00000000
W        4.76218710       1.58739570       1.58739570       0.00000000      -0.00000000      -0.00000000
W        3.17479140       0.00000000       3.17479140      -0.00000000       0.00000000      -0.00000000
W        4.76218710       1.58739570       4.76218710       0.00000000      -0.00000000       0.00000000
W        3.17479140       0.00000000       6.34958280      -0.00000000       0.00000000      -0.00000000
W        4.76218710       1.58739570       7.93697850       0.00000000       0.00000000      -0.00000000
W        3.17479140       0.00000000       9.52437421      -0.00000000       0.00000000       0.00000000
W        4.76218710       1.58739570      11.11176991       0.00000000      -0.00000000       0.00000000
W        3.17479140       0.00000000      12.69916561      -0.00000000       0.00000000      -0.00000000
W        4.76218710       1.58739570      14.28656131       0.00000000      -0.00000000      -0.00000000
W        3.17479140       3.17479140       0.00000000      -0.00000000      -0.00000000       0.00000000
W        4.76218710       4.76218710       1.58739570       0.00000000       0.00000000       0.00000000
W        3.17479140       3.17479140       3.17479140      -0.00000000      -0.00000000      -0.00000000
W        4.76218710       4.76218710       4.76218710       0.00000000       0.00000000       0.00000000
W        3.17479140       3.17479140       6.34958280      -0.00000000      -0.00000000      -0.00000000
W        4.76218710       4.76218710       7.93697850       0.00000000       0.00000000      -0.00000000
W        3.17479140       3.17479140       9.52437421      -0.00000000      -0.00000000       0.00000000
W        4.76218710       4.76218710      11.11176991       0.00000000       0.00000000       0.00000000
W        3.17479140       3.17479140      12.69916561      -0.00000000      -0.00000000      -0.00000000
W        4.76218710       4.76218710      14.28656131       0.00000000       0.00000000      -0.00000000
W        3.17479140       6.34958280       0.00000000      -0.00000000      -0.00000000       0.00000000
W        4.76218710       7.93697850       1.58739570       0.00000000      -0.00000000       0.00000000
W        3.17479140       6.34958280       3.17479140      -0.00000000      -0.00000000      -0.00000000
W        4.76218710       7.93697850       4.76218710       0.00000000      -0.00000000       0.00000000
W        3.17479140       6.34958280       6.34958280      -0.00000000      -0.00000000      -0.00000000
W        4.76218710       7.93697850       7.93697850       0.00000000      -0.00000000      -0.00000000
W        3.17479140       6.34958280       9.52437421      -0.00000000      -0.00000000       0.00000000
W        4.76218710       7.93697850      11.11176991       0.00000000      -0.00000000       0.00000000
W        3.17479140       6.34958280      12.69916561      -0.00000000      -0.00000000      -0.00000000
W        4.76218710       7.93697850      14.28656131       0.00000000      -0.00000000      -0.00000000
W        3.17479140       9.52437421       0.00000000      -0.00000000       0.00000000       0.00000000
W        4.76218710      11.11176991       1.58739570       0.00000000       0.00000000      -0.00000000
W        3.17479140       9.52437421       3.17479140      -0.00000000       0.00000000      -0.00000000
W        4.76218710      11.11176991       4.76218710       0.00000000       0.00000000       0.00000000
W        3.17479140       9.52437421       6.34958280      -0.00000000       0.00000000      -0.00000000
W        4.76218710      11.11176991       7.93697850       0.00000000       0.00000000      -0.00000000
W        3.17479140       9.52437421       9.52437421      -0.00000000       0.00000000       0.00000000
W        4.76218710      11.11176991      11.11176991       0.00000000       0.00000000       0.00000000
W        3.17479140       9.52437421      12.69916561      -0.00000000       0.00000000      -0.00000000
W        4.76218710      11.11176991      14.28656131       0.00000000       0.00000000      -0.00000000
W        3.17479140      12.69916561       0.00000000      -0.00000000      -0.00000000       0.00000000
W        4.76218710      14.28656131       1.58739570       0.00000000      -0.00000000      -0.00000000
W        3.17479140      12.69916561       3.17479140      -0.00000000      -0.00000000      -0.00000000
W        4.76218710      14.28656131       4.76218710       0.00000000      -0.00000000       0.00000000
W        3.17479140      12.69916561       6.34958280      -0.00000000      -0.00000000      -0.00000000
W        4.76218710      14.28656131       7.93697850       0.00000000      -0.00000000      -0.00000000
W        3.17479140      12.69916561       9.52437421      -0.00000000      -0.00000000       0.00000000
W        4.76218710      14.28656131      11.11176991       0.00000000      -0.00000000       0.00000000
W        3.17479140      12.69916561      12.69916561      -0.00000000      -0.00000000      -0.00000000
W        4.76218710      14.28656131      14.28656131       0.00000000      -0.00000000      -0.00000000
W        6.34958280       0.00000000       0.00000000      -0.00000000       0.00000000       0.00000000
W        7.93697850       1.58739570       1.58739570      -0.00000000       0.00000000      -0.00000000
W        6.34958280       0.00000000       3.17479140      -0.00000000       0.00000000      -0.00000000
W        7.93697850       1.58739570       4.76218710      -0.00000000      -0.00000000       0.00000000
W        6.34958280       0.00000000       6.34958280      -0.00000000       0.00000000      -0.00000000
W        7.93697850       1.58739570       7.93697850      -0.00000000       0.00000000      -0.00000000
W        6.34958280       0.00000000       9.52437421      -0.00000000       0.00000000       0.00000000
W        7.93697850       1.58739570      11.11176991      -0.00000000      -0.00000000       0.00000000
W        6.34958280       0.00000000      12.69916561      -0.00000000       0.00000000      -0.00000000
W        7.93697850       1.58739570      14.28656131      -0.00000000       0.00000000      -0.00000000
W        6.34958280       3.17479140       0.00000000      -0.00000000      -0.00000000       0.00000000
W        7.93697850       4.76218710       1.58739570      -0.00000000       0.00000000      -0.00000000
W        6.34958280       3.17479140       3.17479140      -0.00000000      -0.00000000      -0.00000000
W        7.93697850       4.76218710       4.76218710      -0.00000000       0.00000000       0.00000000
W        6.34958280       3.17479140       6.34958280      -0.00000000      -0.00000000      -0.00000000
W        7.93697850       4.76218710       7.93697850      -0.00000000       0.00000000      -0.00000000
W        6.34958280       3.17479140       9.52437421      -0.00000000      -0.00000000       0.00000000
W        7.93697850       4.76218710      11.11176991      -0.00000000       0.00000000       0.00000000
W        6.34958280       3.17479140      12.69916561      -0.00000000      -0.00000000      -0.00000000
W        7.93697850       4.76218710      14.28656131      -0.00000000       0.00000000      -0.00000000
W        6.34958280       6.34958280       0.00000000      -0.00000000      -0.00000000       0.00000000
W        7.93697850       7.93697850       1.58739570      -0.00000000      -0.00000000      -0.00000000
W        6.34958280       6.34958280       3.17479140      -0.00000000      -0.00000000      -0.00000000
W        7.93697850       7.93697850       4.76218710      -0.00000000      -0.00000000       0.00000000
W        6.34958280       6.34958280       6.34958280      -0.00000000      -0.00000000      -0.00000000
W        7.93697850       7.93697850       7.93697850      -0.00000000      -0.00000000      -0.00000000
W        6.34958280       6.34958280       9.52437421      -0.00000000      -0.00000000       0.00000000
W        7.93697850       7.93697850      11.11176991      -0.00000000      -0.00000000       0.00000000
W        6.34958280       6.34958280      12.69916561      -0.00000000      -0.00000000      -0.00000000
W        7.93697850       7.93697850      14.28656131      -0.00000000      -0.00000000      -0.00000000
W        6.34958280       9.52437421       0.00000000      -0.00000000       0.00000000       0.00000000
W        7.93697850      11.11176991       1.58739570      -0.00000000       0.00000000      -0.00000000
W        6.34958280       9.52437421       3.17479140      -0.00000000       0.00000000      -0.00000000
W        7.93697850      11.11176991       4.76218710      -0.00000000       0.00000000       0.00000000
W        6.34958280       9.52437421       6.34958280       0.00000000       0.00000000      -0.00000000
W        7.93697850      11.11176991       7.93697850      -0.00000000       0.00000000      -0.00000000
W        6.34958280       9.52437421       9.52437421       0.00000000       0.00000000       0.00000000
W        7.93697850      11.11176991      11.11176991      -0.00000000       0.00000000       0.00000000
W        6.34958280       9.52437421      12.69916561      -0.00000000       0.00000000      -0.00000000
W        7.93697850      11.11176991      14.28656131      -0.00000000       0.00000000      -0.00000000
W        6.34958280      12.69916561       0.00000000      -0.00000000      -0.00000000       0.00000000
W        7.93697850      14.28656131       1.58739570      -0.00000000      -0.00000000      -0.00000000
W        6.34958280      12.69916561       3.17479140      -0.00000000      -0.00000000      -0.00000000
W        7.93697850      14.28656131       4.76218710      -0.00000000      -0.00000000       0.00000000
W        6.34958280      12.69916561       6.34958280      -0.00000000      -0.00000000      -0.00000000
W        7.93697850      14.28656131       7.93697850      -0.00000000      -0.00000000      -0.00000000
W        6.34958280      12.69916561       9.52437421      -0.00000000      -0.00000000       0.00000000
W        7.93697850      14.28656131      11.11176991      -0.00000000      -0.00000000       0.00000000
W        6.34958280      12.69916561      12.69916561       0.00000000      -0.00000000      -0.00000000
W        7.93697850      14.28656131      14.28656131      -0.00000000      -0.00000000      -0.00000000
W        9.52437421       0.00000000       0.00000000       0.00000000       0.00000000       0.00000000
W       11.11176991       1.58739570       1.58739570       0.00000000       0.00000000      -0.00000000
W        9.52437421       0.00000000       3.17479140       0.00000000       0.00000000      -0.00000000
W       11.11176991       1.58739570       4.76218710       0.00000000       0.00000000       0.00000000
W        9.52437421       0.00000000       6.34958280       0.00000000       0.00000000      -0.00000000
W       11.11176991       1.58739570       7.93697850       0.00000000       0.00000000      -0.00000000
W        9.52437421       0.00000000       9.52437421       0.00000000       0.00000000       0.00000000
W       11.11176991       1.58739570      11.11176991       0.00000000      -0.00000000       0.00000000
W        9.52437421       0.00000000      12.69916561       0.00000000       0.00000000      -0.00000000
W       11.11176991       1.58739570      14.28656131       0.00000000       0.00000000      -0.00000000
W        9.52437421       3.17479140       0.00000000       0.00000000      -0.00000000       0.00000000
W       11.11176991       4.76218710       1.58739570       0.00000000       0.00000000      -0.00000000
W        9.52437421       3.17479140       3.17479140       0.00000000      -0.00000000      -0.00000000
W       11.11176991       4.76218710       4.76218710       0.00000000       0.00000000       0.00000000
W        9.52437421       3.17479140       6.34958280       0.00000000      -0.00000000      -0.00000000
W       11.11176991       4.76218710       7.93697850       0.00000000       0.00000000      -0.00000000
W        9.52437421       3.17479140       9.52437421       0.00000000      -0.00000000       0.00000000
W       11.11176991       4.76218710      11.11176991       0.00000000       0.00000000       0.00000000
W        9.52437421       3.17479140      12.69916561       0.00000000      -0.00000000      -0.00000000
W       11.11176991       4.76218710      14.28656131       0.00000000       0.00000000      -0.00000000
W        9.52437421       6.34958280       0.00000000       0.00000000      -0.00000000       0.00000000
W       11.11176991       7.93697850       1.58739570       0.00000000      -0.00000000       0.00000000
W        9.52437421       6.34958280       3.17479140       0.00000000      -0.00000000      -0.00000000
W       11.11176991       7.93697850       4.76218710       0.00000000      -0.00000000       0.00000000
W        9.52437421       6.34958280       6.34958280       0.00000000      -0.00000000      -0.00000000
W       11.11176991       7.93697850       7.93697850       0.00000000      -0.00000000      -0.00000000
W        9.52437421       6.34958280       9.52437421       0.00000000      -0.00000000       0.00000000
W       11.11176991       7.93697850      11.11176991       0.00000000      -0.00000000       0.00000000
W        9.52437421       6.34958280      12.69916561       0.00000000      -0.00000000      -0.00000000
W       11.11176991       7.93697850      14.28656131       0.00000000      -0.00000000      -0.00000000
W        9.52437421       9.52437421       0.00000000       0.00000000       0.00000000       0.00000000
W       11.11176991      11.11176991       1.58739570       0.00000000       0.00000000      -0.00000000
W        9.52437421       9.52437421       3.17479140       0.00000000       0.00000000      -0.00000000
W       11.11176991      11.11176991       4.76218710       0.00000000       0.00000000       0.00000000
W        9.52437421       9.52437421       6.34958280       0.00000000       0.00000000      -0.00000000
W       11.11176991      11.11176991       7.93697850       0.00000000       0.00000000      -0.00000000
W        9.52437421       9.52437421       9.52437421       0.00000000       0.00000000       0.00000000
W       11.11176991      11.11176991      11.11176991       0.00000000       0.00000000       0.00000000
W        9.52437421       9.52437421      12.69916561       0.00000000       0.00000000      -0.00000000
W       11.11176991      11.11176991      14.28656131       0.00000000       0.00000000      -0.00000000
W        9.52437421      12.69916561       0.00000000       0.00000000      -0.00000000       0.00000000
W       11.11176991      14.28656131       1.58739570       0.00000000      -0.00000000      -0.00000000
W        9.52437421      12.69916561       3.17479140       0.00000000      -0.00000000      -0.00000000
W       11.11176991      14.28656131       4.76218710       0.00000000      -0.00000000       0.00000000
W        9.52437421      12.69916561       6.34958280       0.00000000      -0.00000000       0.00000000
W       11.11176991      14.28656131       7.93697850       0.00000000      -0.00000000      -0.00000000
W        9.52437421      12.69916561       9.52437421       0.00000000      -0.00000000       0.00000000
W       11.11176991      14.28656131      11.11176991       0.00000000      -0.00000000       0.00000000
W        9.52437421      12.69916561      12.69916561       0.00000000      -0.00000000      -0.00000000
W       11.11176991      14.28656131      14.28656131       0.00000000      -0.00000000      -0.00000000
W       12.69916561       0.00000000       0.00000000      -0.00000000       0.00000000       0.00000000
W       14.28656131       1.58739570       1.58739570       0.00000000      -0.00000000      -0.00000000
W       12.69916561       0.00000000       3.17479140      -0.00000000       0.00000000      -0.00000000
W       14.28656131       1.58739570       4.76218710      -0.00000000      -0.00000000       0.00000000
W       12.69916561       0.00000000       6.34958280      -0.00000000       0.00000000      -0.00000000
W       14.28656131       1.58739570       7.93697850      -0.00000000       0.00000000      -0.00000000
W       12.69916561       0.00000000       9.52437421      -0.00000000       0.00000000       0.00000000
W       14.28656131       1.58739570      11.11176991      -0.00000000      -0.00000000       0.00000000
W       12.69916561       0.00000000      12.69916561      -0.00000000       0.00000000      -0.00000000
W       14.28656131       1.58739570      14.28656131      -0.00000000       0.00000000      -0.00000000
W       12.69916561       3.17479140       0.00000000      -0.00000000      -0.00000000       0.00000000
W       14.28656131       4.76218710       1.58739570      -0.00000000       0.00000000      -0.00000000
W       12.69916561       3.17479140       3.17479140      -0.00000000      -0.00000000      -0.00000000
W       14.28656131       4.76218710       4.76218710      -0.00000000       0.00000000       0.00000000
W       12.69916561       3.17479140       6.34958280      -0.00000000      -0.00000000      -0.00000000
W       14.28656131       4.76218710       7.93697850      -0.00000000       0.00000000      -0.00000000
W       12.69916561       3.17479140       9.52437421      -0.00000000      -0.00000000       0.00000000
W       14.28656131       4.76218710      11.11176991      -0.00000000       0.00000000       0.00000000
W       12.69916561       3.17479140      12.69916561      -0.00000000      -0.00000000      -0.00000000
W       14.28656131       4.76218710      14.28656131      -0.00000000       0.00000000      -0.00000000
W       12.69916561       6.34958280       0.00000000      -0.00000000      -0.00000000       0.00000000
W       14.28656131       7.93697850       1.58739570      -0.00000000      -0.00000000      -0.00000000
W       12.69916561       6.34958280       3.17479140      -0.00000000      -0.00000000      -0.00000000
W       14.28656131       7.93697850       4.76218710      -0.00000000      -0.00000000       0.00000000
W       12.69916561       6.34958280       6.34958280      -0.00000000      -0.00000000      -0.00000000
W       14.28656131       7.93697850       7.93697850      -0.00000000      -0.00000000      -0.00000000
W       12.69916561       6.34958280       9.52437421      -0.00000000      -0.00000000       0.00000000
W       14.28656131       7.93697850      11.11176991      -0.00000000      -0.00000000       0.00000000
W       12.69916561       6.34958280      12.69916561      -0.00000000      -0.00000000      -0.00000000
W       14.28656131       7.93697850      14.28656131      -0.00000000      -0.00000000      -0.00000000
W       12.69916561       9.52437421       0.00000000      -0.00000000       0.00000000       0.00000000
W       14.28656131      11.11176991       1.58739570      -0.00000000       0.00000000      -0.00000000
W       12.69916561       9.52437421       3.17479140      -0.00000000       0.00000000      -0.00000000
W       14.28656131      11.11176991       4.76218710      -0.00000000       0.00000000       0.00000000
W       12.69916561       9.52437421       6.34958280      -0.00000000       0.00000000       0.00000000
W       14.28656131      11.11176991       7.93697850      -0.00000000       0.00000000      -0.00000000
W       12.69916561       9.52437421       9.52437421      -0.00000000       0.00000000       0.00000000
W       14.28656131      11.11176991      11.11176991      -0.00000000       0.00000000       0.00000000
W       12.69916561       9.52437421      12.69916561      -0.00000000       0.00000000      -0.00000000
W       14.28656131      11.11176991      14.28656131      -0.00000000       0.00000000      -0.00000000
W       12.69916561      12.69916561       0.00000000      -0.00000000      -0.00000000       0.00000000
W       14.28656131      14.28656131       1.58739570      -0.00000000      -0.00000000      -0.00000000
W       12.69916561      12.69916561       3.17479140      -0.00000000      -0.00000000      -0.00000000
W       14.28656131      14.28656131       4.76218710      -0.00000000      -0.00000000       0.00000000
W       12.69916561      12.69916561       6.34958280      -0.00000000      -0.00000000      -0.00000000
W       14.28656131      14.28656131       7.93697850      -0.00000000      -0.00000000      -0.00000000
W       12.69916561      12.69916561       9.52437421      -0.00000000      -0.00000000       0.00000000
W       14.28656131      14.28656131      11.11176991      -0.00000000      -0.00000000       0.00000000
W       12.69916561      12.69916561      12.69916561      -0.00000000      -0.00000000      -0.00000000
W       14.28656131      14.28656131      14.28656131      -0.00000000      -0.00000000      -0.00000000
250
Lattice="15.877269604153609 0.0 0.0 0.0 15.877269604153609 0.0 0.0 0.0 15.877269604153609" Properties=species:S:1:pos:R:3:forces:R:3 strain_type=Hydrostatic strain_value=-0.004375 energy=-479974.9757154591 pbc="T T T"
W        0.00000000       0.00000000       0.00000000       0.00000000       0.00000000      -0.00000000
W        1.58772696       1.58772696       1.58772696      -0.00000000       0.00000000       0.00000000
W        0.00000000       0.00000000       3.17545392       0.00000000       0.00000000      -0.00000000
W        1.58772696       1.58772696       4.76318088      -0.00000000      -0.00000000      -0.00000000
W        0.00000000       0.00000000       6.35090784       0.00000000       0.00000000      -0.00000000
W        1.58772696       1.58772696       7.93863480      -0.00000000      -0.00000000       0.00000000
W        0.00000000       0.00000000       9.52636176       0.00000000       0.00000000      -0.00000000
W        1.58772696       1.58772696      11.11408872      -0.00000000      -0.00000000      -0.00000000
W        0.00000000       0.00000000      12.70181568       0.00000000       0.00000000      -0.00000000
W        1.58772696       1.58772696      14.28954264      -0.00000000       0.00000000       0.00000000
W        0.00000000       3.17545392       0.00000000       0.00000000      -0.00000000      -0.00000000
W        1.58772696       4.76318088       1.58772696      -0.00000000      -0.00000000       0.00000000
W        0.00000000       3.17545392       3.17545392       0.00000000       0.00000000      -0.00000000
W        1.58772696       4.76318088       4.76318088      -0.00000000      -0.00000000      -0.00000000
W        0.00000000       3.17545392       6.35090784       0.00000000      -0.00000000      -0.00000000
W        1.58772696       4.76318088       7.93863480      -0.00000000      -0.00000000       0.00000000
W        0.00000000       3.17545392       9.52636176       0.00000000      -0.00000000      -0.00000000
W        1.58772696       4.76318088      11.11408872      -0.00000000      -0.00000000       0.00000000
W        0.00000000       3.17545392      12.70181568       0.00000000      -0.00000000      -0.00000000
W        1.58772696       4.76318088      14.28954264       0.00000000       0.00000000       0.00000000
W        0.00000000       6.35090784       0.00000000       0.00000000       0.00000000      -0.00000000
W        1.58772696       7.93863480       1.58772696      -0.00000000       0.00000000       0.00000000
W        0.00000000       6.35090784       3.17545392       0.00000000      -0.00000000      -0.00000000
W        1.58772696       7.93863480       4.76318088       0.00000000       0.00000000      -0.00000000
W        0.00000000       6.35090784       6.35090784       0.00000000       0.00000000      -0.00000000
W        1.58772696       7.93863480       7.93863480       0.00000000       0.00000000       0.00000000
W        0.00000000       6.35090784       9.52636176       0.00000000       0.00000000      -0.00000000
W        1.58772696       7.93863480      11.11408872      -0.00000000       0.00000000       0.00000000
W        0.00000000       6.35090784      12.70181568       0.00000000       0.00000000      -0.00000000
W        1.58772696       7.93863480      14.28954264       0.00000000       0.00000000       0.00000000
W        0.00000000       9.52636176       0.00000000       0.00000000      -0.00000000      -0.00000000