250
Lattice="15.900457771737393 1.4014450307626745e-15 -2.637811564179027e-15 1.4014450307626745e-15 15.900457771737388 5.59427042920447e-16 -2.637811564179027e-15 5.59427042920447e-16 15.900457771737388" Properties=species:S:1:pos:R:3:forces:R:3 energy=-479975.0494064017 pbc="T T T"
W       -0.00000000       0.00000000      -0.00000000       0.00000000      -0.00000000       0.00000000
W        1.59004578       1.59004578       1.59004578      -0.00000000      -0.00000000      -0.00000000
W       -0.00000000       0.00000000       3.18009155       0.00000000       0.00000000       0.00000000
W        1.59004578       1.59004578       4.77013733      -0.00000000       0.00000000       0.00000000
W       -0.00000000       0.00000000       6.36018311      -0.00000000       0.00000000       0.00000000
W        1.59004578       1.59004578       7.95022889      -0.00000000       0.00000000       0.00000000
W       -0.00000000       0.00000000       9.54027466       0.00000000       0.00000000       0.00000000
W        1.59004578       1.59004578      11.13032044      -0.00000000      -0.00000000      -0.00000000
W       -0.00000000       0.00000000      12.72036622      -0.00000000      -0.00000000       0.00000000
W        1.59004578       1.59004578      14.31041199      -0.00000000       0.00000000       0.00000000
W        0.00000000       3.18009155       0.00000000      -0.00000000       0.00000000       0.00000000
W        1.59004578       4.77013733       1.59004578      -0.00000000       0.00000000      -0.00000000
W       -0.00000000       3.18009155       3.18009155       0.00000000       0.00000000       0.00000000
W        1.59004578       4.77013733       4.77013733      -0.00000000       0.00000000      -0.00000000
W       -0.00000000       3.18009155       6.36018311      -0.00000000      -0.00000000       0.00000000
W        1.59004578       4.77013733       7.95022889      -0.00000000      -0.00000000      -0.00000000
W       -0.00000000       3.18009155       9.54027466       0.00000000       0.00000000      -0.00000000
W        1.59004578       4.77013733      11.13032044      -0.00000000      -0.00000000       0.00000000
W       -0.00000000       3.18009155      12.72036622      -0.00000000       0.00000000       0.00000000
W        1.59004578       4.77013733      14.31041199      -0.00000000      -0.00000000      -0.00000000
W        0.00000000       6.36018311       0.00000000      -0.00000000       0.00000000       0.00000000
W        1.59004578       7.95022889       1.59004578      -0.00000000      -0.00000000      -0.00000000
W       -0.00000000       6.36018311       3.18009155       0.00000000       0.00000000       0.00000000
W        1.59004578       7.95022889       4.77013733      -0.00000000      -0.00000000      -0.00000000
W       -0.00000000       6.36018311       6.36018311      -0.00000000       0.00000000       0.00000000
W        1.59004578       7.95022889       7.95022889      -0.00000000      -0.00000000       0.00000000
W       -0.00000000       6.36018311       9.54027466      -0.00000000       0.00000000      -0.00000000
W        1.59004578       7.95022889      11.13032044      -0.00000000      -0.00000000      -0.00000000
W       -0.00000000       6.36018311      12.72036622      -0.00000000       0.00000000       0.00000000
W        1.59004578       7.95022889      14.31041199      -0.00000000      -0.00000000       0.00000000
W        0.00000000       9.54027466       0.00000000      -0.00000000      -0.00000000       0.00000000
W        1.59004578      11.13032044       1.59004578      -0.00000000      -0.00000000      -0.00000000
W        0.00000000       9.54027466       3.18009155      -0.00000000      -0.00000000       0.00000000
W        1.59004578      11.13032044       4.77013733      -0.00000000       0.00000000      -0.00000000
W       -0.00000000       9.54027466       6.36018311      -0.00000000       0.00000000       0.00000000
W        1.59004578      11.13032044       7.95022889      -0.00000000      -0.00000000       0.00000000
W       -0.00000000       9.54027466       9.54027466      -0.00000000      -0.00000000      -0.00000000
W        1.59004578      11.13032044      11.13032044      -0.00000000       0.00000000      -0.00000000
W       -0.00000000       9.54027466      12.72036622      -0.00000000       0.00000000      -0.00000000
W        1.59004578      11.13032044      14.31041199      -0.00000000       0.00000000      -0.00000000
W        0.00000000      12.72036622       0.00000000       0.00000000      -0.00000000       0.00000000
W        1.59004578      14.31041199       1.59004578      -0.00000000      -0.00000000      -0.00000000
W        0.00000000      12.72036622       3.18009155       0.00000000       0.00000000       0.00000000
W        1.59004578      14.31041199       4.77013733      -0.00000000       0.00000000      -0.00000000
W       -0.00000000      12.72036622       6.36018311       0.00000000       0.00000000       0.00000000
W        1.59004578      14.31041199       7.95022889      -0.00000000      -0.00000000      -0.00000000
W       -0.00000000      12.72036622       9.54027466      -0.00000000       0.00000000      -0.00000000
W        1.59004578      14.31041199      11.13032044      -0.00000000       0.00000000      -0.00000000
W       -0.00000000      12.72036622      12.72036622       0.00000000       0.00000000       0.00000000
W        1.59004578      14.31041199      14.31041199      -0.00000000       0.00000000      -0.00000000
W        3.18009155       0.00000000      -0.00000000      -0.00000000      -0.00000000       0.00000000
W        4.77013733       1.59004578       1.59004578       0.00000000       0.00000000      -0.00000000
W        3.18009155       0.00000000       3.18009155      -0.00000000      -0.00000000       0.00000000
W        4.77013733       1.59004578       4.77013733       0.00000000       0.00000000       0.00000000
W        3.18009155       0.00000000       6.36018311      -0.00000000      -0.00000000       0.00000000
W        4.77013733       1.59004578       7.95022889       0.00000000       0.00000000       0.00000000
W        3.18009155       0.00000000       9.54027466      -0.00000000      -0.00000000       0.00000000
W        4.77013733       1.59004578      11.13032044       0.00000000      -0.00000000       0.00000000
W        3.18009155       0.00000000      12.72036622      -0.00000000      -0.00000000      -0.00000000
W        4.77013733       1.59004578      14.31041199       0.00000000       0.00000000      -0.00000000
W        3.18009155       3.18009155      -0.00000000      -0.00000000      -0.00000000       0.00000000
W        4.77013733       4.77013733       1.59004578       0.00000000      -0.00000000      -0.00000000
W        3.18009155       3.18009155       3.18009155      -0.00000000       0.00000000      -0.00000000
W        4.77013733       4.77013733       4.77013733       0.00000000      -0.00000000      -0.00000000
W        3.18009155       3.18009155       6.36018311      -0.00000000      -0.00000000       0.00000000
W        4.77013733       4.77013733       7.95022889       0.00000000       0.00000000      -0.00000000
W        3.18009155       3.18009155       9.54027466      -0.00000000      -0.00000000      -0.00000000
W        4.77013733       4.77013733      11.13032044       0.00000000       0.00000000       0.00000000
W        3.18009155       3.18009155      12.72036622      -0.00000000       0.00000000      -0.00000000
W        4.77013733       4.77013733      14.31041199       0.00000000      -0.00000000      -0.00000000
W        3.18009155       6.36018311      -0.00000000      -0.00000000       0.00000000      -0.00000000
W        4.77013733       7.95022889       1.59004578       0.00000000      -0.00000000       0.00000000
W        3.18009155       6.36018311       3.18009155      -0.00000000       0.00000000       0.00000000
W        4.77013733       7.95022889       4.77013733       0.00000000      -0.00000000       0.00000000
W        3.18009155       6.36018311       6.36018311      -0.00000000       0.00000000      -0.00000000
W        4.77013733       7.95022889       7.95022889       0.00000000      -0.00000000      -0.00000000
W        3.18009155       6.36018311       9.54027466      -0.00000000       0.00000000      -0.00000000
W        4.77013733       7.95022889      11.13032044       0.00000000      -0.00000000      -0.00000000
W        3.18009155       6.36018311      12.72036622      -0.00000000      -0.00000000      -0.00000000
W        4.77013733       7.95022889      14.31041199       0.00000000      -0.00000000      -0.00000000
W        3.18009155       9.54027466      -0.00000000      -0.00000000      -0.00000000       0.00000000
W        4.77013733      11.13032044       1.59004578       0.00000000       0.00000000      -0.00000000
W        3.18009155       9.54027466       3.18009155      -0.00000000      -0.00000000       0.00000000
W        4.77013733      11.13032044       4.77013733       0.00000000      -0.00000000      -0.00000000
W        3.18009155       9.54027466       6.36018311      -0.00000000      -0.00000000       0.00000000
W        4.77013733      11.13032044       7.95022889       0.00000000       0.00000000       0.00000000
W        3.18009155       9.54027466       9.54027466      -0.00000000       0.00000000      -0.00000000
W        4.77013733      11.13032044      11.13032044       0.00000000       0.00000000      -0.00000000
W        3.18009155       9.54027466      12.72036622      -0.00000000      -0.00000000      -0.00000000
W        4.77013733      11.13032044      14.31041199       0.00000000       0.00000000      -0.00000000
W        3.18009155      12.72036622      -0.00000000      -0.00000000      -0.00000000       0.00000000
W        4.77013733      14.31041199       1.59004578       0.00000000      -0.00000000      -0.00000000
W        3.18009155      12.72036622       3.18009155      -0.00000000       0.00000000       0.00000000
W        4.77013733      14.31041199       4.77013733       0.00000000       0.00000000      -0.00000000
W        3.18009155      12.72036622       6.36018311      -0.00000000      -0.00000000       0.00000000
W        4.77013733      14.31041199       7.95022889       0.00000000       0.00000000       0.00000000
W        3.18009155      12.72036622       9.54027466      -0.00000000      -0.00000000      -0.00000000
W        4.77013733      14.31041199      11.13032044       0.00000000       0.00000000       0.00000000
W        3.18009155      12.72036622      12.72036622      -0.00000000       0.00000000      -0.00000000
W        4.77013733      14.31041199      14.31041199       0.00000000       0.00000000      -0.00000000
W        6.36018311       0.00000000      -0.00000000      -0.00000000      -0.00000000      -0.00000000
W        7.95022889       1.59004578       1.59004578      -0.00000000      -0.00000000       0.00000000
W        6.36018311       0.00000000       3.18009155      -0.00000000       0.00000000      -0.00000000
W        7.95022889       1.59004578       4.77013733       0.00000000      -0.00000000       0.00000000
W        6.36018311       0.00000000       6.36018311      -0.00000000      -0.00000000       0.00000000
W        7.95022889       1.59004578       7.95022889      -0.00000000      -0.00000000       0.00000000
W        6.36018311       0.00000000       9.54027466      -0.00000000      -0.00000000      -0.00000000
W        7.95022889       1.59004578      11.13032044      -0.00000000      -0.00000000      -0.00000000
W        6.36018311       0.00000000      12.72036622      -0.00000000      -0.00000000      -0.00000000
W        7.95022889       1.59004578      14.31041199      -0.00000000      -0.00000000       0.00000000
W        6.36018311       3.18009155      -0.00000000      -0.00000000      -0.00000000      -0.00000000
W        7.95022889       4.77013733       1.59004578      -0.00000000      -0.00000000       0.00000000
W        6.36018311       3.18009155       3.18009155      -0.00000000       0.00000000      -0.00000000
W        7.95022889       4.77013733       4.77013733      -0.00000000      -0.00000000      -0.00000000
W        6.36018311       3.18009155       6.36018311      -0.00000000      -0.00000000       0.00000000
W        7.95022889       4.77013733       7.95022889      -0.00000000      -0.00000000       0.00000000
W        6.36018311       3.18009155       9.54027466      -0.00000000       0.00000000      -0.00000000
W        7.95022889       4.77013733      11.13032044      -0.00000000      -0.00000000      -0.00000000
W        6.36018311       3.18009155      12.72036622      -0.00000000       0.00000000      -0.00000000
W        7.95022889       4.77013733      14.31041199      -0.00000000       0.00000000      -0.00000000
W        6.36018311       6.36018311      -0.00000000      -0.00000000       0.00000000       0.00000000
W        7.95022889       7.95022889       1.59004578      -0.00000000       0.00000000       0.00000000
W        6.36018311       6.36018311       3.18009155      -0.00000000       0.00000000       0.00000000
W        7.95022889       7.95022889       4.77013733      -0.00000000       0.00000000      -0.00000000
W        6.36018311       6.36018311       6.36018311      -0.00000000       0.00000000       0.00000000
W        7.95022889       7.95022889       7.95022889      -0.00000000      -0.00000000       0.00000000
W        6.36018311       6.36018311       9.54027466      -0.00000000       0.00000000       0.00000000
W        7.95022889       7.95022889      11.13032044      -0.00000000       0.00000000      -0.00000000
W        6.36018311       6.36018311      12.72036622      -0.00000000      -0.00000000      -0.00000000
W        7.95022889       7.95022889      14.31041199      -0.00000000      -0.00000000      -0.00000000
W        6.36018311       9.54027466      -0.00000000      -0.00000000      -0.00000000       0.00000000
W        7.95022889      11.13032044       1.59004578      -0.00000000       0.00000000       0.00000000
W        6.36018311       9.54027466       3.18009155      -0.00000000      -0.00000000      -0.00000000
W        7.95022889      11.13032044       4.77013733      -0.00000000       0.00000000      -0.00000000
W        6.36018311       9.54027466       6.36018311      -0.00000000       0.00000000       0.00000000
W        7.95022889      11.13032044       7.95022889      -0.00000000       0.00000000       0.00000000
W        6.36018311       9.54027466       9.54027466      -0.00000000       0.00000000       0.00000000
W        7.95022889      11.13032044      11.13032044      -0.00000000       0.00000000      -0.00000000
W        6.36018311       9.54027466      12.72036622      -0.00000000       0.00000000       0.00000000
W        7.95022889      11.13032044      14.31041199      -0.00000000       0.00000000      -0.00000000
W        6.36018311      12.72036622      -0.00000000      -0.00000000      -0.00000000       0.00000000
W        7.95022889      14.31041199       1.59004578      -0.00000000       0.00000000       0.00000000
W        6.36018311      12.72036622       3.18009155      -0.00000000      -0.00000000      -0.00000000
W        7.95022889      14.31041199       4.77013733      -0.00000000      -0.00000000      -0.00000000
W        6.36018311      12.72036622       6.36018311      -0.00000000       0.00000000       0.00000000
W        7.95022889      14.31041199       7.95022889      -0.00000000       0.00000000       0.00000000
W        6.36018311      12.72036622       9.54027466      -0.00000000       0.00000000       0.00000000
W        7.95022889      14.31041199      11.13032044      -0.00000000       0.00000000       0.00000000
W        6.36018311      12.72036622      12.72036622      -0.00000000       0.00000000      -0.00000000
W        7.95022889      14.31041199      14.31041199      -0.00000000       0.00000000       0.00000000
W        9.54027466       0.00000000      -0.00000000       0.00000000      -0.00000000       0.00000000
W       11.13032044       1.59004578       1.59004578       0.00000000      -0.00000000      -0.00000000
W        9.54027466       0.00000000       3.18009155       0.00000000       0.00000000      -0.00000000
W       11.13032044       1.59004578       4.77013733       0.00000000      -0.00000000       0.00000000
W        9.54027466       0.00000000       6.36018311       0.00000000      -0.00000000       0.00000000
W       11.13032044       1.59004578       7.95022889       0.00000000      -0.00000000       0.00000000
W        9.54027466       0.00000000       9.54027466       0.00000000      -0.00000000      -0.00000000
W       11.13032044       1.59004578      11.13032044       0.00000000      -0.00000000      -0.00000000
W        9.54027466       0.00000000      12.72036622       0.00000000      -0.00000000       0.00000000
W       11.13032044       1.59004578      14.31041199       0.00000000      -0.00000000       0.00000000
W        9.54027466       3.18009155      -0.00000000       0.00000000       0.00000000       0.00000000
W       11.13032044       4.77013733       1.59004578       0.00000000      -0.00000000      -0.00000000
W        9.54027466       3.18009155       3.18009155       0.00000000      -0.00000000       0.00000000
W       11.13032044       4.77013733       4.77013733       0.00000000      -0.00000000       0.00000000
W        9.54027466       3.18009155       6.36018311       0.00000000      -0.00000000      -0.00000000
W       11.13032044       4.77013733       7.95022889       0.00000000      -0.00000000       0.00000000
W        9.54027466       3.18009155       9.54027466       0.00000000      -0.00000000       0.00000000
W       11.13032044       4.77013733      11.13032044       0.00000000       0.00000000       0.00000000
W        9.54027466       3.18009155      12.72036622       0.00000000       0.00000000       0.00000000
W       11.13032044       4.77013733      14.31041199       0.00000000      -0.00000000       0.00000000
W        9.54027466       6.36018311      -0.00000000       0.00000000       0.00000000       0.00000000
W       11.13032044       7.95022889       1.59004578       0.00000000       0.00000000       0.00000000
W        9.54027466       6.36018311       3.18009155       0.00000000      -0.00000000       0.00000000
W       11.13032044       7.95022889       4.77013733       0.00000000       0.00000000       0.00000000
W        9.54027466       6.36018311       6.36018311       0.00000000      -0.00000000      -0.00000000
W       11.13032044       7.95022889       7.95022889       0.00000000       0.00000000       0.00000000
W        9.54027466       6.36018311       9.54027466       0.00000000       0.00000000      -0.00000000
W       11.13032044       7.95022889      11.13032044       0.00000000       0.00000000      -0.00000000
W        9.54027466       6.36018311      12.72036622       0.00000000      -0.00000000       0.00000000
W       11.13032044       7.95022889      14.31041199       0.00000000      -0.00000000       0.00000000
W        9.54027466       9.54027466      -0.00000000       0.00000000      -0.00000000       0.00000000
W       11.13032044      11.13032044       1.59004578       0.00000000       0.00000000      -0.00000000
W        9.54027466       9.54027466       3.18009155       0.00000000      -0.00000000       0.00000000
W       11.13032044      11.13032044       4.77013733       0.00000000       0.00000000       0.00000000
W        9.54027466       9.54027466       6.36018311       0.00000000       0.00000000      -0.00000000
W       11.13032044      11.13032044       7.95022889       0.00000000       0.00000000      -0.00000000
W        9.54027466       9.54027466       9.54027466       0.00000000      -0.00000000      -0.00000000
W       11.13032044      11.13032044      11.13032044       0.00000000       0.00000000      -0.00000000
W        9.54027466       9.54027466      12.72036622       0.00000000      -0.00000000      -0.00000000
W       11.13032044      11.13032044      14.31041199       0.00000000       0.00000000       0.00000000
W        9.54027466      12.72036622      -0.00000000       0.00000000      -0.00000000       0.00000000
W       11.13032044      14.31041199       1.59004578       0.00000000       0.00000000      -0.00000000
W        9.54027466      12.72036622       3.18009155       0.00000000      -0.00000000       0.00000000
W       11.13032044      14.31041199       4.77013733       0.00000000       0.00000000       0.00000000
W        9.54027466      12.72036622       6.36018311       0.00000000      -0.00000000       0.00000000
W       11.13032044      14.31041199       7.95022889       0.00000000       0.00000000      -0.00000000
W        9.54027466      12.72036622       9.54027466       0.00000000      -0.00000000      -0.00000000
W       11.13032044      14.31041199      11.13032044       0.00000000       0.00000000      -0.00000000
W        9.54027466      12.72036622      12.72036622       0.00000000      -0.00000000       0.00000000
W       11.13032044      14.31041199      14.31041199       0.00000000       0.00000000      -0.00000000
W       12.72036622       0.00000000      -0.00000000      -0.00000000       0.00000000      -0.00000000
W       14.31041199       1.59004578       1.59004578       0.00000000       0.00000000      -0.00000000
W       12.72036622       0.00000000       3.18009155      -0.00000000      -0.00000000       0.00000000
W       14.31041199       1.59004578       4.77013733       0.00000000      -0.00000000       0.00000000
W       12.72036622       0.00000000       6.36018311      -0.00000000      -0.00000000      -0.00000000
W       14.31041199       1.59004578       7.95022889       0.00000000       0.00000000      -0.00000000
W       12.72036622       0.00000000       9.54027466      -0.00000000      -0.00000000      -0.00000000
W       14.31041199       1.59004578      11.13032044       0.00000000       0.00000000      -0.00000000
W       12.72036622       0.00000000      12.72036622      -0.00000000      -0.00000000       0.00000000
W       14.31041199       1.59004578      14.31041199       0.00000000      -0.00000000       0.00000000
W       12.72036622       3.18009155      -0.00000000      -0.00000000       0.00000000      -0.00000000
W       14.31041199       4.77013733       1.59004578       0.00000000      -0.00000000       0.00000000
W       12.72036622       3.18009155       3.18009155      -0.00000000       0.00000000      -0.00000000
W       14.31041199       4.77013733       4.77013733       0.00000000       0.00000000      -0.00000000
W       12.72036622       3.18009155       6.36018311      -0.00000000      -0.00000000       0.00000000
W       14.31041199       4.77013733       7.95022889       0.00000000      -0.00000000      -0.00000000
W       12.72036622       3.18009155       9.54027466      -0.00000000       0.00000000      -0.00000000
W       14.31041199       4.77013733      11.13032044       0.00000000      -0.00000000      -0.00000000
W       12.72036622       3.18009155      12.72036622      -0.00000000       0.00000000       0.00000000
W       14.31041199       4.77013733      14.31041199       0.00000000      -0.00000000      -0.00000000
W       12.72036622       6.36018311      -0.00000000      -0.00000000       0.00000000      -0.00000000
W       14.31041199       7.95022889       1.59004578       0.00000000      -0.00000000       0.00000000
W       12.72036622       6.36018311       3.18009155      -0.00000000       0.00000000       0.00000000
W       14.31041199       7.95022889       4.77013733       0.00000000       0.00000000       0.00000000
W       12.72036622       6.36018311       6.36018311      -0.00000000       0.00000000       0.00000000
W       14.31041199       7.95022889       7.95022889       0.00000000      -0.00000000      -0.00000000
W       12.72036622       6.36018311       9.54027466      -0.00000000       0.00000000       0.00000000
W       14.31041199       7.95022889      11.13032044       0.00000000      -0.00000000      -0.00000000
W       12.72036622       6.36018311      12.72036622      -0.00000000      -0.00000000      -0.00000000
W       14.31041199       7.95022889      14.31041199       0.00000000      -0.00000000       0.00000000
W       12.72036622       9.54027466      -0.00000000      -0.00000000      -0.00000000       0.00000000
W       14.31041199      11.13032044       1.59004578       0.00000000       0.00000000      -0.00000000
W       12.72036622       9.54027466       3.18009155      -0.00000000      -0.00000000       0.00000000
W       14.31041199      11.13032044       4.77013733       0.00000000      -0.00000000       0.00000000
W       12.72036622       9.54027466       6.36018311      -0.00000000      -0.00000000       0.00000000
W       14.31041199      11.13032044       7.95022889       0.00000000       0.00000000      -0.00000000
W       12.72036622       9.54027466       9.54027466      -0.00000000      -0.00000000      -0.00000000
W       14.31041199      11.13032044      11.13032044       0.00000000      -0.00000000      -0.00000000
W       12.72036622       9.54027466      12.72036622      -0.00000000      -0.00000000       0.00000000
W       14.31041199      11.13032044      14.31041199       0.00000000       0.00000000      -0.00000000
W       12.72036622      12.72036622      -0.00000000      -0.00000000      -0.00000000       0.00000000
W       14.31041199      14.31041199       1.59004578       0.00000000      -0.00000000      -0.00000000
W       12.72036622      12.72036622       3.18009155      -0.00000000      -0.00000000      -0.00000000
W       14.31041199      14.31041199       4.77013733       0.00000000       0.00000000       0.00000000
W       12.72036622      12.72036622       6.36018311      -0.00000000      -0.00000000       0.00000000
W       14.31041199      14.31041199       7.95022889       0.00000000       0.00000000      -0.00000000
W       12.72036622      12.72036622       9.54027466      -0.00000000      -0.00000000       0.00000000
W       14.31041199      14.31041199      11.13032044       0.00000000       0.00000000      -0.00000000
W       12.72036622      12.72036622      12.72036622      -0.00000000       0.00000000      -0.00000000
W       14.31041199      14.31041199      14.31041199       0.00000000       0.00000000      -0.00000000
