8193
Lattice="45.343209283534776 0.0 0.0 0.0 45.343209283534776 0.0 0.0 0.0 45.343209283534776" Properties=species:S:1:pos:R:3:forces:R:3:energies:R:1 energy=-28355381.129165042 stress="-0.00017068122822654238 -6.50477784520322e-05 -6.50477845202745e-05 -6.50477784520322e-05 -0.0001706812187715823 -6.50477791531568e-05 -6.50477845202745e-05 -6.50477791531568e-05 -0.00017068122945747274" free_energy=-28355381.129165042 pbc="T T T"
Fe      -0.00002295      -0.00002295      -0.00002295       0.00000003       0.00000003       0.00000003   -3460.92863436
Fe       1.41663580       1.41663580       1.41663580      -0.00000079      -0.00000079      -0.00000079   -3460.92863363
Fe      -0.00026508      -0.00026508       2.83380867      -0.00000077      -0.00000077       0.00000007   -3460.92863430
Fe       1.41638282       1.41638282       4.25047623      -0.00000176      -0.00000176      -0.00000090   -3460.92863274
Fe      -0.00047040      -0.00047040       5.66766565      -0.00000151      -0.00000151      -0.00000012   -3460.92863432
Fe       1.41617379       1.41617379       7.08436501      -0.00000284      -0.00000284      -0.00000126   -3460.92863206
Fe      -0.00060803      -0.00060803       8.50156425      -0.00000208      -0.00000208      -0.00000034   -3460.92863407
Fe       1.41604163       1.41604163       9.91831733      -0.00000359      -0.00000359      -0.00000120   -3460.92863124
Fe      -0.00065647      -0.00065647      11.33551176      -0.00000244      -0.00000244      -0.00000064   -3460.92863338
Fe       1.41600901       1.41600901      12.75233498      -0.00000398      -0.00000398      -0.00000114   -3460.92863028
Fe      -0.00060713      -0.00060713      14.16950545      -0.00000233      -0.00000233      -0.00000084   -3460.92863231
Fe       1.41608359       1.41608359      15.58640409      -0.00000387      -0.00000387      -0.00000092   -3460.92862935
Fe      -0.00046622      -0.00046622      17.00353452      -0.00000170      -0.00000170      -0.00000072   -3460.92863108
Fe       1.41625486       1.41625486      18.42049852      -0.00000311      -0.00000311      -0.00000020   -3460.92862858
Fe      -0.00025473      -0.00025473      19.83758440      -0.00000086      -0.00000086      -0.00000040   -3460.92863010
Fe       1.41649506       1.41649506      21.25458926      -0.00000216      -0.00000216       0.00000056   -3460.92862831
Fe      -0.00000560      -0.00000560      22.67164090      -0.00000001      -0.00000001      -0.00000002   -3460.92862982
Fe       1.41676435       1.41676435      24.08865385      -0.00000122      -0.00000122       0.00000114   -3460.92862894
Fe       0.00024167       0.00024167      25.50569199       0.00000084       0.00000084       0.00000033   -3460.92863041
Fe       1.41701918       1.41701918      26.92268056      -0.00000024      -0.00000024       0.00000145   -3460.92863043
Fe       0.00044819       0.00044819      28.33972682       0.00000167       0.00000167       0.00000059   -3460.92863163
Fe       1.41722055       1.41722055      29.75666605       0.00000075       0.00000075       0.00000128   -3460.92863235
Fe       0.00058234       0.00058234      31.17373444       0.00000231       0.00000231       0.00000074   -3460.92863299
Fe       1.41733994       1.41733994      32.59061047       0.00000146       0.00000146       0.00000071   -3460.92863414
Fe       0.00062468       0.00062468      34.00770452       0.00000246       0.00000246       0.00000063   -3460.92863409
Fe       1.41736212       1.41736212      35.42451463       0.00000155       0.00000155       0.00000015   -3460.92863539
Fe       0.00057016       0.00057016      36.84163028       0.00000212       0.00000212       0.00000041   -3460.92863471
Fe       1.41728561       1.41728561      38.25838069       0.00000118       0.00000118      -0.00000032   -3460.92863585
Fe       0.00042805       0.00042805      39.67551189       0.00000156       0.00000156       0.00000023   -3460.92863480
Fe       1.41712206       1.41712206      41.09221480       0.00000070       0.00000070      -0.00000078   -3460.92863548
Fe       0.00022005       0.00022005      42.50935827       0.00000083       0.00000083       0.00000003   -3460.92863455
Fe       1.41689470       1.41689470      43.92602964       0.00000006       0.00000006      -0.00000091   -3460.92863457
Fe      -0.00026508       2.83380867      -0.00026508      -0.00000077       0.00000007      -0.00000077   -3460.92863430
Fe       1.41638282       4.25047623       1.41638282      -0.00000176      -0.00000090      -0.00000176   -3460.92863274
Fe      -0.00052983       2.83356432       2.83356432      -0.00000204      -0.00000074      -0.00000074   -3460.92863355
Fe       1.41607767       4.25020688       4.25020688      -0.00000349      -0.00000173      -0.00000173   -3460.92863101
Fe      -0.00077169       2.83334790       5.66743045      -0.00000347      -0.00000141      -0.00000087   -3460.92863321
Fe       1.41580810       4.24997231       7.08409435      -0.00000549      -0.00000255      -0.00000207   -3460.92862984
Fe      -0.00095318       2.83319315       8.50135261      -0.00000453      -0.00000186      -0.00000090   -3460.92863327
Fe       1.41561813       4.24981112       9.91806737      -0.00000691      -0.00000341      -0.00000214   -3460.92862963
Fe      -0.00104508       2.83312571      11.33533860      -0.00000489      -0.00000185      -0.00000070   -3460.92863331
Fe       1.41554109       4.24975294      12.75212905      -0.00000676      -0.00000334      -0.00000123   -3460.92862973
Fe      -0.00103147       2.83315843      14.16938152      -0.00000472      -0.00000164      -0.00000058   -3460.92863307
Fe       1.41559275       4.24981225      15.58625917      -0.00000576      -0.00000304      -0.00000060   -3460.92862967
Fe      -0.00091350       2.83328779      17.00346097      -0.00000391      -0.00000122      -0.00000028   -3460.92863243
Fe       1.41576602       4.24998208      18.42041712      -0.00000444      -0.00000262       0.00000010   -3460.92862910
Fe      -0.00070982       2.83349328      19.83754974      -0.00000301      -0.00000076       0.00000017   -3460.92863155
Fe       1.41603101       4.25023282      21.25455625      -0.00000342      -0.00000210       0.00000100   -3460.92862824
Fe      -0.00045334       2.83374091      22.67162312      -0.00000249      -0.00000045       0.00000056   -3460.92863104
Fe       1.41634210       4.25051932      24.08864217      -0.00000305      -0.00000173       0.00000172   -3460.92862819
Fe      -0.00018509       2.83399016      25.50566523      -0.00000217      -0.00000008       0.00000088   -3460.92863145
Fe       1.41664831       4.25079266      26.92266159      -0.00000273      -0.00000121       0.00000211   -3460.92862958
Fe       0.00005333       2.83420207      28.33966939      -0.00000165       0.00000054       0.00000099   -3460.92863273
Fe       1.41690314       4.25101105      29.75661832      -0.00000185      -0.00000029       0.00000186   -3460.92863202
Fe       0.00022647       2.83434568      31.17363429      -0.00000075       0.00000133       0.00000074   -3460.92863436
Fe       1.41707131       4.25114567      32.59052320      -0.00000060       0.00000063       0.00000107   -3460.92863459
Fe       0.00030991       2.83440175      34.00756013       0.00000015       0.00000189       0.00000032   -3460.92863570
Fe       1.41713195       4.25118185      35.42438630       0.00000033       0.00000120       0.00000014   -3460.92863646
Fe       0.00029280       2.83436401      36.84144781       0.00000050       0.00000201      -0.00000022   -3460.92863630
Fe       1.41707911       4.25111804      38.25821482       0.00000050       0.00000140      -0.00000092   -3460.92863711
Fe       0.00017831       2.83423902      39.67530062       0.00000038       0.00000171      -0.00000074   -3460.92863608
Fe       1.41692070       4.25096427      41.09201586       0.00000013       0.00000102      -0.00000175   -3460.92863646
Fe      -0.00001700       2.83404480      42.50912735       0.00000004       0.00000096      -0.00000089   -3460.92863527
Fe       1.41667770       4.25074069      43.92580145      -0.00000057       0.00000010      -0.00000199   -3460.92863478
Fe      -0.00047040       5.66766565      -0.00047040      -0.00000151      -0.00000012      -0.00000151   -3460.92863432
Fe       1.41617379       7.08436501       1.41617379      -0.00000284      -0.00000126      -0.00000284   -3460.92863206
Fe      -0.00077169       5.66743045       2.83334790      -0.00000347      -0.00000087      -0.00000141   -3460.92863321
Fe       1.41580810       7.08409435       4.24997231      -0.00000549      -0.00000207      -0.00000255   -3460.92862984
Fe      -0.00105870       5.66721353       5.66721353      -0.00000560      -0.00000114      -0.00000114   -3460.92863310
Fe       1.41547644       7.08384754       7.08384754      -0.00000786      -0.00000203      -0.00000203   -3460.92862956
Fe      -0.00128473       5.66705012       8.50115053      -0.00000714      -0.00000103      -0.00000080   -3460.92863498
Fe       1.41523687       7.08366736       9.91783057      -0.00000872      -0.00000203      -0.00000184   -3460.92863312
Fe      -0.00141193       5.66696964      11.33516763      -0.00000697      -0.00000064      -0.00000017   -3460.92863801
Fe       1.41513294       7.08359015      12.75192624      -0.00000719      -0.00000211      -0.00000116   -3460.92863839
Fe      -0.00141951       5.66698845      14.16925306      -0.00000523      -0.00000002       0.00000040   -3460.92864054
Fe       1.41518185       7.08363512      15.58610701      -0.00000370      -0.00000094       0.00000054   -3460.92864224
Fe      -0.00130736       5.66710553      17.00337733      -0.00000305       0.00000028       0.00000044   -3460.92864118
Fe       1.41537302       7.08379863      18.42032026      -0.00000072      -0.00000021       0.00000098   -3460.92864203
Fe      -0.00109533       5.66730095      19.83750242      -0.00000135       0.00000029       0.00000034   -3460.92863945
Fe       1.41567135       7.08405029      21.25450486       0.00000055      -0.00000005       0.00000091   -3460.92863794
Fe      -0.00081824       5.66753991      22.67159500      -0.00000100       0.00000001       0.00000027   -3460.92863654
Fe       1.41602659       7.08434075      24.08861574      -0.00000018      -0.00000028       0.00000100   -3460.92863324
Fe      -0.00051906       5.66778150      25.50563615      -0.00000187      -0.00000037       0.00000032   -3460.92863440
Fe       1.41638375       7.08461770      26.92263725      -0.00000205      -0.00000075       0.00000125   -3460.92863103
Fe      -0.00024250       5.66798790      28.33962190      -0.00000278      -0.00000042       0.00000051   -3460.92863405
Fe       1.41669046       7.08483889      29.75657785      -0.00000311      -0.00000097       0.00000169   -3460.92863202
Fe      -0.00002900       5.66813047      31.17355750      -0.00000260      -0.00000001       0.00000063   -3460.92863520
Fe       1.41690355       7.08497718      32.59045666      -0.00000219      -0.00000052       0.00000166   -3460.92863481
Fe       0.00009084       5.66819191      34.00745070      -0.00000144       0.00000078       0.00000032   -3460.92863673
Fe       1.41699502       7.08502018      35.42429121      -0.00000027       0.00000067       0.00000033   -3460.92863731
Fe       0.00010048       5.66816655      36.84130794      -0.00000036       0.00000160      -0.00000072   -3460.92863754
Fe       1.41695465       7.08496783      38.25809198       0.00000075       0.00000144      -0.00000145   -3460.92863832
Fe      -0.00000125       5.66805950      39.67513464       0.00000001       0.00000159      -0.00000159   -3460.92863721
Fe       1.41678838       7.08482918      41.09186553       0.00000035       0.00000111      -0.00000256   -3460.92863749
Fe      -0.00020067       5.66788508      42.50893953      -0.00000034       0.00000082      -0.00000169   -3460.92863591
Fe       1.41651656       7.08462044      43.92562219      -0.00000091       0.00000002      -0.00000283   -3460.92863509
Fe      -0.00060803       8.50156425      -0.00060803      -0.00000208      -0.00000034      -0.00000208   -3460.92863407
Fe       1.41604163       9.91831732       1.41604163      -0.00000359      -0.00000120      -0.00000359   -3460.92863124
Fe      -0.00095318       8.50135261       2.83319315      -0.00000453      -0.00000090      -0.00000186   -3460.92863327
Fe       1.41561813       9.91806737       4.24981112      -0.00000691      -0.00000214      -0.00000341   -3460.92862963
Fe      -0.00128473       8.50115053       5.66705012      -0.00000714      -0.00000080      -0.00000103   -3460.92863498
Fe       1.41523687       9.91783057       7.08366736      -0.00000872      -0.00000184      -0.00000203   -3460.92863312
Fe      -0.00154602       8.50099162       8.50099162      -0.00000789       0.00000027       0.00000027   -3460.92863970
Fe       1.41496888       9.91764863       9.91764863      -0.00000703      -0.00000025      -0.00000025   -3460.92864148
Fe      -0.00169066       8.50090759      11.33502780      -0.00000609       0.00000114       0.00000097   -3460.92864658
Fe       1.41486631       9.91756239      12.75176211      -0.00000255       0.00000072       0.00000053   -3460.92865242
Fe      -0.00169691       8.50091764      14.16914141      -0.00000213       0.00000175       0.00000130   -3460.92865225
Fe       1.41494002       9.91759556      15.58597249       0.00000293       0.00000127       0.00000114   -3460.92866020
Fe      -0.00156998       8.50102265      17.00329508       0.00000186       0.00000211       0.00000106   -3460.92865432
Fe       1.41516566       9.91774724      18.42021859       0.00000691       0.00000259       0.00000170   -3460.92866150
Fe      -0.00133578       8.50120359      19.83744440       0.00000401       0.00000181       0.00000014   -3460.92865180
Fe       1.41549845       9.91798781      21.25443302       0.00000751       0.00000252       0.00000049   -3460.92865523
Fe      -0.00103269       8.50142494      22.67155213       0.00000412       0.00000134      -0.00000061   -3460.92864603
Fe       1.41588590       9.91826485      24.08856551       0.00000566       0.00000218      -0.00000043   -3460.92864551
Fe      -0.00070406       8.50164571      25.50559850       0.00000240       0.00000091      -0.00000093   -3460.92864006
Fe       1.41627592       9.91852427      26.92259810       0.00000226       0.00000171      -0.00000017   -3460.92863748
Fe      -0.00039490       8.50183100      28.33958081      -0.00000002       0.00000039      -0.00000061   -3460.92863627
Fe       1.41661687       9.91872669      29.75654006      -0.00000087       0.00000089       0.00000093   -3460.92863401
Fe      -0.00014922       8.50195730      31.17350647      -0.00000143       0.00000003       0.00000014   -3460.92863537
Fe       1.41686014       9.91885072      32.59041348      -0.00000155       0.00000072       0.00000123   -3460.92863476
Fe      -0.00000387       8.50201234      34.00738571      -0.00000116       0.00000039       0.00000004   -3460.92863633
Fe       1.41696971       9.91888943      35.42423883      -0.00000001       0.00000098       0.00000021   -3460.92863719
Fe       0.00001879       8.50199320      36.84122674      -0.00000010       0.00000080      -0.00000087   -3460.92863753
Fe       1.41692978       9.91884541      38.25802773       0.00000145       0.00000109      -0.00000144   -3460.92863875
Fe      -0.00008557       8.50190421      39.67503588       0.00000029       0.00000071      -0.00000171   -3460.92863755
Fe       1.41674488       9.91872685      41.09178517       0.00000092       0.00000055      -0.00000258   -3460.92863810
Fe      -0.00030412       8.50175578      42.50882175      -0.00000051       0.00000027      -0.00000207   -3460.92863607
Fe       1.41643618       9.91854539      43.92551907      -0.00000098      -0.00000025      -0.00000323   -3460.92863517
Fe      -0.00065647      11.33551176      -0.00065647      -0.00000244      -0.00000064      -0.00000244   -3460.92863338
Fe       1.41600901      12.75233498       1.41600901      -0.00000398      -0.00000114      -0.00000398   -3460.92863028
Fe      -0.00104508      11.33533860       2.83312571      -0.00000489      -0.00000070      -0.00000185   -3460.92863331
Fe       1.41554109      12.75212905       4.24975294      -0.00000676      -0.00000123      -0.00000334   -3460.92862973
Fe      -0.00141193      11.33516763       5.66696964      -0.00000697      -0.00000017      -0.00000064   -3460.92863801
Fe       1.41513294      12.75192624       7.08359015      -0.00000719      -0.00000116      -0.00000211   -3460.92863839
Fe      -0.00169066      11.33502780       8.50090759      -0.00000609       0.00000097       0.00000114   -3460.92864658
Fe       1.41486631      12.75176211       9.91756239      -0.00000255       0.00000053       0.00000072   -3460.92865242
Fe      -0.00183109      11.33494845      11.33494845      -0.00000155       0.00000235       0.00000235   -3460.92865642
Fe       1.41479174      12.75167420      12.75167420       0.00000491       0.00000279       0.00000279   -3460.92866717
Fe      -0.00181397      11.33495165      14.16907140       0.00000424       0.00000264       0.00000197   -3460.92866356
Fe       1.41491093      12.75169223      15.58588719       0.00001117       0.00000308       0.00000236   -3460.92867573
Fe      -0.00165479      11.33504170      17.00323365       0.00000864       0.00000254       0.00000097   -3460.92866532
Fe       1.41518123      12.75182164      18.42013614       0.00001379       0.00000249       0.00000076   -3460.92867613
Fe      -0.00138948      11.33520237      19.83738910       0.00001008       0.00000234      -0.00000034   -3460.92866171
Fe       1.41554522      12.75203725      21.25435542       0.00001252       0.00000315      -0.00000024   -3460.92866830
Fe      -0.00106105      11.33539843      22.67150215       0.00000907       0.00000212      -0.00000144   -3460.92865445
Fe       1.41594839      12.75228610      24.08849769       0.00000947       0.00000323      -0.00000140   -3460.92865652
Fe      -0.00071180      11.33558803      25.50555562       0.00000669       0.00000211      -0.00000190   -3460.92864642
Fe       1.41634593      12.75251163      26.92254555       0.00000572       0.00000329      -0.00000123   -3460.92864545
Fe      -0.00038339      11.33573885      28.33954784       0.00000346       0.00000174      -0.00000160   -3460.92863989
Fe       1.41669470      12.75267756      29.75650569       0.00000166       0.00000330      -0.00000046   -3460.92863815
Fe      -0.00011996      11.33583459      31.17348425       0.00000066       0.00000129      -0.00000109   -3460.92863631
Fe       1.41694654      12.75277131      32.59039609      -0.00000080       0.00000256       0.00000023   -3460.92863597
Fe       0.00003651      11.33587153      34.00737119      -0.00000017       0.00000066      -0.00000065   -3460.92863570
Fe       1.41705822      12.75279452      35.42423444      -0.00000012       0.00000163       0.00000004   -3460.92863726
Fe       0.00005773      11.33585200      36.84121399       0.00000080      -0.00000003      -0.00000048   -3460.92863662
Fe       1.41700725      12.75275464      38.25803032       0.00000184       0.00000070      -0.00000079   -3460.92863872
Fe      -0.00006309      11.33578071      39.67501787       0.00000120      -0.00000029      -0.00000097   -3460.92863694
Fe       1.41679661      12.75265973      41.09178641       0.00000182       0.00000016      -0.00000202   -3460.92863811
Fe      -0.00031202      11.33566414      42.50879136      -0.00000022      -0.00000030      -0.00000202   -3460.92863554
Fe       1.41644969      12.75251701      43.92550838      -0.00000061      -0.00000045      -0.00000326   -3460.92863481
Fe      -0.00060713      14.16950545      -0.00060713      -0.00000233      -0.00000084      -0.00000233   -3460.92863231
Fe       1.41608359      15.58640409       1.41608359      -0.00000387      -0.00000092      -0.00000387   -3460.92862935
Fe      -0.00103147      14.16938152       2.83315843      -0.00000472      -0.00000058      -0.00000164   -3460.92863307
Fe       1.41559275      15.58625917       4.24981225      -0.00000576      -0.00000060      -0.00000304   -3460.92862967
Fe      -0.00141951      14.16925306       5.66698845      -0.00000523       0.00000040      -0.00000002   -3460.92864054
Fe       1.41518185      15.58610701       7.08363512      -0.00000370       0.00000054      -0.00000094   -3460.92864224
Fe      -0.00169691      14.16914141       8.50091764      -0.00000213       0.00000130       0.00000175   -3460.92865225
Fe       1.41494002      15.58597249       9.91759556       0.00000293       0.00000114       0.00000127   -3460.92866020
Fe      -0.00181397      14.16907140      11.33495165       0.00000424       0.00000197       0.00000264   -3460.92866356
Fe       1.41491093      15.58588719      12.75169223       0.00001117       0.00000236       0.00000308   -3460.92867573
Fe      -0.00175923      14.16906572      14.16906572       0.00001058       0.00000218       0.00000218   -3460.92867006
Fe       1.41508251      15.58588344      15.58588344       0.00001587       0.00000255       0.00000255   -3460.92868274
Fe      -0.00155967      14.16913524      17.00321621       0.00001323       0.00000110       0.00000028   -3460.92866993
Fe       1.41539501      15.58597709      18.42010583       0.00001517       0.00000075      -0.00000007   -3460.92867967
Fe      -0.00126243      14.16926915      19.83735953       0.00001217       0.00000051      -0.00000124   -3460.92866508
Fe       1.41578057      15.58615272      21.25430318       0.00001148      -0.00000032      -0.00000214   -3460.92867105
Fe      -0.00091424      14.16943508      22.67146630       0.00000952       0.00000075      -0.00000181   -3460.92865793
Fe       1.41618504      15.58636256      24.08843851       0.00000777       0.00000105      -0.00000157   -3460.92866010
Fe      -0.00055437      14.16959048      25.50552475       0.00000662       0.00000126      -0.00000190   -3460.92865074
Fe       1.41657194      15.58654886      26.92249843       0.00000437       0.00000220      -0.00000148   -3460.92865020
Fe      -0.00021926      14.16970309      28.33953467       0.00000329       0.00000194      -0.00000210   -3460.92864437
Fe       1.41690753      15.58667468      29.75648554       0.00000052       0.00000298      -0.00000101   -3460.92864270
Fe       0.00004855      14.16976231      31.17349728       0.00000006       0.00000196      -0.00000198   -3460.92863942
Fe       1.41714771      15.58673304      32.59040953      -0.00000239       0.00000302      -0.00000025   -3460.92863912
Fe       0.00020310      14.16977394      34.00741087      -0.00000081       0.00000106      -0.00000115   -3460.92863670
Fe       1.41724599      15.58673529      35.42427983      -0.00000158       0.00000206       0.00000013   -3460.92863882
Fe       0.00021073      14.16974839      36.84127291       0.00000104      -0.00000006      -0.00000006   -3460.92863606
Fe       1.41717468      15.58669615      38.25810020       0.00000155       0.00000103      -0.00000040   -3460.92863907
Fe       0.00006307      14.16969304      39.67508444       0.00000223      -0.00000053      -0.00000022   -3460.92863576
Fe       1.41693569      15.58662565      41.09186961       0.00000265       0.00000025      -0.00000148   -3460.92863770
Fe      -0.00022251      14.16961129      42.50885376       0.00000062      -0.00000071      -0.00000151   -3460.92863438
Fe       1.41655597      15.58652781      43.92559255       0.00000008      -0.00000041      -0.00000281   -3460.92863399
Fe      -0.00046622      17.00353452      -0.00046622      -0.00000170      -0.00000072      -0.00000170   -3460.92863108
Fe       1.41625486      18.42049852       1.41625486      -0.00000311      -0.00000020      -0.00000311   -3460.92862858
Fe      -0.00091350      17.00346097       2.83328779      -0.00000391      -0.00000028      -0.00000122   -3460.92863243
Fe       1.41576602      18.42041712       4.24998208      -0.00000444       0.00000010      -0.00000262   -3460.92862910
Fe      -0.00130736      17.00337733       5.66710553      -0.00000305       0.00000044       0.00000028   -3460.92864118
Fe       1.41537302      18.42032026       7.08379863      -0.00000072       0.00000098      -0.00000021   -3460.92864203
Fe      -0.00156998      17.00329508       8.50102265       0.00000186       0.00000106       0.00000211   -3460.92865432
Fe       1.41516566      18.42021859       9.91774724       0.00000691       0.00000170       0.00000259   -3460.92866150
Fe      -0.00165479      17.00323365      11.33504170       0.00000864       0.00000097       0.00000254   -3460.92866532
Fe       1.41518123      18.42013614      12.75182164       0.00001379       0.00000076       0.00000249   -3460.92867613
Fe      -0.00155967      17.00321621      14.16913524       0.00001323       0.00000028       0.00000110   -3460.92866993
Fe       1.41539501      18.42010583      15.58597709       0.00001517      -0.00000007       0.00000075   -3460.92867967
Fe      -0.00132299      17.00326029      17.00326029       0.00001333      -0.00000080      -0.00000080   -3460.92866777
Fe       1.41573682      18.42015484      18.42015484       0.00001120      -0.00000140      -0.00000140   -3460.92867410
Fe      -0.00100053      17.00336408      19.83737931       0.00000987      -0.00000200      -0.00000208   -3460.92866169
Fe       1.41613193      18.42028123      21.25431088       0.00000589      -0.00000293      -0.00000262   -3460.92866444
Fe      -0.00064014      17.00349995      22.67147109       0.00000614      -0.00000177      -0.00000170   -3460.92865580
Fe       1.41652923      18.42044726      24.08842310       0.00000239      -0.00000236      -0.00000215   -3460.92865605
Fe      -0.00027689      17.00362556      25.50553066       0.00000321      -0.00000039      -0.00000108   -3460.92865163
Fe       1.41689830      18.42059732      26.92248539      -0.00000003       0.00000034      -0.00000043   -3460.92865019
Fe       0.00005772      17.00370689      28.33955953       0.00000004       0.00000116      -0.00000133   -3460.92864818
Fe       1.41721163      18.42069167      29.75649776      -0.00000305       0.00000188      -0.00000023   -3460.92864598
Fe       0.00032217      17.00373496      31.17355489      -0.00000307       0.00000185      -0.00000186   -3460.92864434
Fe       1.41742846      18.42072317      32.59046089      -0.00000530       0.00000249      -0.00000004   -3460.92864347
Fe       0.00046712      17.00372258      34.00750584      -0.00000338       0.00000144      -0.00000144   -3460.92864038
Fe       1.41750300      18.42070867      35.42437333      -0.00000371       0.00000238      -0.00000013   -3460.92864230
Fe       0.00045443      17.00368861      36.84139920      -0.00000018       0.00000065      -0.00000034   -3460.92863727
Fe       1.41740635      18.42067003      38.25822963       0.00000049       0.00000144      -0.00000056   -3460.92864055
Fe       0.00027507      17.00364537      39.67522851       0.00000242      -0.00000037       0.00000020   -3460.92863498
Fe       1.41714120      18.42062105      41.09202357       0.00000271       0.00000030      -0.00000117   -3460.92863745
Fe      -0.00004771      17.00359512      42.50900130       0.00000144      -0.00000092      -0.00000074   -3460.92863299
Fe       1.41673932      18.42056497      43.92575945       0.00000070      -0.00000029      -0.00000214   -3460.92863299
Fe      -0.00025473      19.83758440      -0.00025473      -0.00000086      -0.00000040      -0.00000086   -3460.92863010
Fe       1.41649506      21.25458926       1.41649506      -0.00000216       0.00000056      -0.00000216   -3460.92862831
Fe      -0.00070982      19.83754974       2.83349328      -0.00000301       0.00000017      -0.00000076   -3460.92863155
Fe       1.41603101      21.25455625       4.25023282      -0.00000342       0.00000100      -0.00000210   -3460.92862824
Fe      -0.00109533      19.83750242       5.66730095      -0.00000135       0.00000034       0.00000029   -3460.92863945
Fe       1.41567135      21.25450486       7.08405029       0.00000055       0.00000091      -0.00000005   -3460.92863794
Fe      -0.00133578      19.83744440       8.50120359       0.00000401       0.00000014       0.00000181   -3460.92865180
Fe       1.41549845      21.25443302       9.91798781       0.00000751       0.00000049       0.00000252   -3460.92865523
Fe      -0.00138948      19.83738910      11.33520237       0.00001008      -0.00000034       0.00000234   -3460.92866171
Fe       1.41554522      21.25435542      12.75203725       0.00001252      -0.00000024       0.00000315   -3460.92866830
Fe      -0.00126243      19.83735953      14.16926915       0.00001217      -0.00000124       0.00000051   -3460.92866508
Fe       1.41578057      21.25430318      15.58615272       0.00001148      -0.00000214      -0.00000032   -3460.92867105
Fe      -0.00100053      19.83737931      17.00336408       0.00000987      -0.00000208      -0.00000200   -3460.92866169
Fe       1.41613193      21.25431088      18.42028123       0.00000589      -0.00000262      -0.00000293   -3460.92866444
Fe      -0.00066338      19.83745552      19.83745552       0.00000578      -0.00000252      -0.00000252   -3460.92865582
Fe       1.41652470      21.25439029      21.25439029       0.00000036      -0.00000246      -0.00000246   -3460.92865565
Fe      -0.00029760      19.83756712      22.67153010       0.00000225      -0.00000206      -0.00000095   -3460.92865161
Fe       1.41691104      21.25451517      24.08847062      -0.00000256      -0.00000173      -0.00000053   -3460.92865029